/*--------------------------------*- C++ -*----------------------------------*\
| =========                 |                                                 |
| \\      /  F ield         | foam-extend: Open Source CFD                    |
|  \\    /   O peration     | Version:     4.0                                |
|   \\  /    A nd           | Web:         http://www.foam-extend.org         |
|    \\/     M anipulation  |                                                 |
\*---------------------------------------------------------------------------*/
FoamFile
{
    version     2.0;
    format      ascii;
    class       volVectorField;
    location    "205.9";
    object      gradTSol;
}
// * * * * * * * * * * * * * * * * * * * * * * * * * * * * * * * * * * * * * //

dimensions      [0 0 0 0 0 0 0];

internalField   nonuniform List<vector> 
6000
(
(0.0013465 -270.682 3.66846e-15)
(0.320186 -270.667 -3.67148e-15)
(0.612884 -270.684 -3.66845e-15)
(0.572267 -270.689 -3.66851e-15)
(0.543473 -270.691 -1.10112e-14)
(0.518642 -270.692 1.83428e-14)
(0.495489 -270.693 -3.66354e-15)
(0.473209 -270.694 -3.66858e-15)
(0.451386 -270.694 -7.33718e-15)
(0.429756 -270.695 7.3372e-15)
(0.408113 -270.695 -7.33306e-15)
(0.386281 -270.696 2.20038e-14)
(0.364089 -270.696 7.32983e-15)
(0.341358 -270.697 7.33725e-15)
(0.317897 -270.697 7.34372e-15)
(0.293492 -270.697 5.96633e-18)
(0.267898 -270.698 -7.34272e-15)
(0.240837 -270.698 1.46721e-14)
(0.211989 -270.698 7.33513e-15)
(0.180982 -270.698 3.67416e-15)
(0.147389 -270.698 -3.66415e-15)
(0.110716 -270.699 3.66302e-15)
(0.0703921 -270.699 3.66794e-15)
(0.0257612 -270.699 7.33783e-15)
(-0.0239339 -270.699 -7.33706e-15)
(-0.079563 -270.699 1.10035e-14)
(-0.142124 -270.699 -2.56777e-14)
(-0.212762 -270.698 1.83519e-14)
(-0.292786 -270.698 -1.11146e-30)
(-0.38369 -270.698 2.20079e-14)
(-0.487182 -270.698 3.64388e-15)
(-0.605202 -270.697 -1.09997e-14)
(-0.73996 -270.696 7.33724e-15)
(-0.893961 -270.696 -2.20117e-14)
(-1.07005 -270.695 7.31544e-15)
(-1.27143 -270.694 -2.20503e-14)
(-1.50174 -270.693 -1.82665e-14)
(-1.76507 -270.691 1.09877e-14)
(-2.06603 -270.689 -1.83426e-14)
(-2.40981 -270.687 -2.1913e-14)
(-2.80222 -270.685 7.19452e-15)
(-3.24978 -270.682 -2.5712e-14)
(-3.75978 -270.679 -1.10052e-14)
(-4.34036 -270.675 -1.46733e-14)
(-5.00061 -270.671 -1.07507e-14)
(-5.75064 -270.666 -1.46144e-14)
(-6.60168 -270.661 2.18746e-14)
(-7.5662 -270.655 -7.56682e-15)
(-8.658 -270.647 -2.95196e-14)
(-9.89235 -270.639 -1.08024e-14)
(-11.2861 -270.629 -7.45014e-15)
(-12.8264 -270.739 -3.68224e-14)
(-14.5931 -270.727 -1.04138e-14)
(-16.5803 -270.713 -7.16916e-15)
(-18.8126 -270.697 -1.15795e-14)
(-21.3169 -270.679 -7.98679e-15)
(-24.1224 -270.659 -2.90997e-14)
(-27.2612 -270.636 -1.32857e-14)
(-30.7059 -270.731 1.40521e-14)
(-34.6127 -270.701 -3.37218e-14)
(-38.9661 -270.668 -1.06086e-14)
(-43.8102 -270.631 -8.22608e-15)
(-49.1045 -270.711 -2.98496e-14)
(-55.0698 -270.664 -4.035e-14)
(-61.576 -270.733 -7.33823e-15)
(-68.8825 -270.674 -3.52829e-14)
(-76.8351 -270.731 -5.77621e-15)
(-85.7363 -270.658 -4.53955e-15)
(-95.4042 -270.698 -1.17654e-14)
(-106.037 -270.73 -1.51348e-15)
(-117.878 -270.629 8.60681e-15)
(-130.699 -270.64 -9.67509e-15)
(-144.743 -270.639 -2.19662e-15)
(-160.105 -270.625 7.74822e-15)
(-176.676 -270.72 -1.10068e-14)
(-194.971 -270.676 -3.66835e-15)
(-214.905 -270.616 -1.60726e-14)
(-236.343 -270.661 -3.66814e-14)
(-259.632 -270.687 -4.4946e-16)
(-284.898 -270.691 8.10983e-15)
(-312.275 -270.673 -1.78473e-14)
(-341.899 -270.629 -1.44783e-14)
(-373.597 -270.685 -1.86002e-14)
(-408.136 -270.586 -5.40887e-15)
(-445.024 -270.582 9.0468e-15)
(-484.382 -270.672 -7.33658e-15)
(-527.065 -270.6 1.07146e-14)
(-572.526 -270.617 -3.27645e-14)
(-621.29 -270.595 -3.36141e-14)
(-673.532 -270.529 1.27188e-14)
(-729.035 -270.546 -1.47434e-14)
(-788.367 -270.515 -3.57193e-14)
(-851.313 -270.564 -2.93346e-14)
(-918.465 -270.558 3.03467e-14)
(-990.025 -270.493 5.585e-14)
(-1065.79 -270.5 -2.89981e-14)
(-1145.97 -270.575 1.53151e-14)
(-1231.59 -270.448 3.96978e-14)
(-1321.7 -270.518 1.09986e-14)
(-1417.32 -270.511 -7.07396e-15)
(-1518.68 -270.424 1.46597e-14)
(-1625.69 -270.389 -2.9384e-14)
(-1738.66 -270.403 -5.30173e-22)
(-1858.18 -270.323 3.35415e-14)
(-1984.28 -270.284 3.66303e-15)
(-2117.31 -270.281 2.88472e-14)
(-2257.85 -270.169 -8.30376e-15)
(-2405.94 -270.228 3.66821e-22)
(-2562.33 -270.167 2.9706e-14)
(-2727.33 -270.123 1.46434e-14)
(-2901.46 -270.093 -2.21707e-14)
(-3085.16 -269.92 -4.70386e-22)
(-3279.23 -269.895 1.46311e-14)
(-3483.97 -269.714 -3.54125e-14)
(-3700.63 -269.669 3.03053e-14)
(-3929.78 -269.603 5.82128e-14)
(-4172.25 -269.506 -3.51034e-14)
(-4429 -269.369 -5.597e-14)
(-4701.03 -269.18 1.82403e-14)
(-4989.46 -268.927 0)
(-5296.75 -268.756 4.65536e-14)
(-5623.36 -268.494 5.35193e-14)
(-5970.83 -268.123 3.63374e-15)
(-6342.69 -267.785 -1.36198e-13)
(-6739.43 -267.297 -7.93699e-14)
(-7165.57 -266.796 1.45667e-13)
(-7624.39 -266.251 -7.74973e-14)
(-8116.59 -265.463 -8.96957e-14)
(-8652.16 -264.714 9.15315e-14)
(-9229.51 -263.626 -1.84052e-13)
(-9857.26 -262.294 -2.1816e-13)
(-10541.9 -260.636 2.07239e-13)
(-11296.3 -258.698 2.33147e-13)
(-12125.5 -256.184 1.19776e-13)
(-13040.2 -252.921 -2.58236e-13)
(-14068.8 -248.93 -2.92748e-13)
(-15215.6 -243.609 1.48055e-13)
(-16501 -236.554 1.64517e-13)
(-17983.6 -227.378 3.65585e-13)
(-19671.6 -215.001 1.74829e-14)
(-21639.4 -198.326 -6.59855e-13)
(-23962.9 -175.7 -4.76236e-15)
(-26713.2 -145.736 2.79424e-13)
(-30071.5 -107.396 -1.45548e-15)
(-34250.6 -63.9708 6.96274e-13)
(-39672.6 -25.5555 1.38536e-15)
(-46992.2 -5.20028 -1.43301e-12)
(-57764.8 -0.818432 5.87111e-13)
(-75212.4 -1.30215 5.29425e-17)
(-109439 0.0275951 -1.11238e-12)
(0.0119784 -812.579 -1.10124e-14)
(0.319201 -812.568 1.62224e-17)
(0.59793 -812.594 -1.10249e-14)
(0.567674 -812.605 -1.21309e-26)
(0.541625 -812.611 1.09964e-14)
(0.517734 -812.614 2.20154e-14)
(0.495 -812.617 1.50941e-17)
(0.472949 -812.619 4.80724e-18)
(0.451276 -812.621 -1.10177e-14)
(0.42976 -812.623 -1.31156e-26)
(0.408217 -812.624 2.20221e-14)
(0.386481 -812.626 -1.1021e-14)
(0.364388 -812.627 1.10131e-14)
(0.341765 -812.628 1.10132e-14)
(0.318424 -812.629 -1.10067e-14)
(0.294155 -812.63 1.19596e-17)
(0.268718 -812.631 1.10077e-14)
(0.241837 -812.632 -2.20387e-14)
(0.213195 -812.632 1.10176e-14)
(0.182428 -812.633 -3.30397e-14)
(0.149112 -812.633 4.40514e-14)
(0.112758 -812.634 1.1019e-14)
(0.0728029 -812.634 -2.20265e-14)
(0.0285959 -812.634 -2.20274e-14)
(-0.0206117 -812.634 3.30397e-14)
(-0.0756813 -812.634 -2.2028e-14)
(-0.137601 -812.634 3.30397e-14)
(-0.207506 -812.633 -2.20201e-14)
(-0.286691 -812.633 2.91404e-18)
(-0.376639 -812.632 -1.10132e-14)
(-0.479042 -812.631 2.20069e-14)
(-0.595824 -812.629 -1.10132e-14)
(-0.729176 -812.628 -1.10206e-14)
(-0.881585 -812.625 1.10131e-14)
(-1.05587 -812.623 -2.66382e-29)
(-1.25521 -812.62 1.0962e-14)
(-1.48323 -812.616 6.03044e-17)
(-1.74397 -812.612 -2.20082e-14)
(-2.04203 -812.607 1.08676e-14)
(-2.38254 -812.601 -2.19529e-14)
(-2.77129 -812.594 -1.09564e-14)
(-3.21476 -812.585 -1.30704e-16)
(-3.72019 -812.576 -3.29239e-14)
(-4.29568 -812.565 1.10123e-14)
(-4.95026 -812.553 -3.31874e-14)
(-5.69398 -812.538 -4.37005e-14)
(-6.53802 -812.522 1.12775e-14)
(-7.49479 -812.503 1.04782e-14)
(-8.57802 -812.481 -2.22839e-14)
(-9.80291 -812.456 3.98563e-16)
(-11.1862 -812.428 1.10105e-14)
(-12.7465 -812.396 -1.101e-14)
(-14.4694 -812.722 2.26172e-14)
(-16.4428 -812.68 2.18606e-14)
(-18.66 -812.632 1.04442e-14)
(-21.1477 -812.579 -4.29908e-16)
(-23.9353 -812.518 -1.07684e-14)
(-27.0545 -812.449 1.18357e-14)
(-30.4782 -812.735 -9.29378e-16)
(-34.3621 -812.647 1.06642e-14)
(-38.6905 -812.548 1.17986e-14)
(-43.5077 -812.437 -1.32669e-15)
(-48.7733 -812.677 1.00223e-14)
(-54.7074 -812.537 1.11214e-15)
(-61.2844 -812.38 -1.03869e-14)
(-68.4512 -812.57 -9.62085e-15)
(-76.4874 -812.374 7.77449e-16)
(-85.226 -812.522 -8.66271e-16)
(-94.8506 -812.645 1.19775e-14)
(-105.589 -812.374 -2.09462e-14)
(-117.23 -812.441 1.10106e-14)
(-129.999 -812.475 -1.32136e-15)
(-143.988 -812.473 -4.25807e-14)
(-159.293 -812.432 1.10105e-14)
(-176.015 -812.349 2.68362e-23)
(-194.036 -812.591 1.97226e-15)
(-213.904 -812.411 4.48761e-15)
(-235.273 -812.549 -2.44156e-14)
(-258.491 -812.628 7.8822e-15)
(-283.683 -812.644 1.10134e-14)
(-310.982 -812.591 -1.41736e-14)
(-340.527 -812.464 -6.9225e-15)
(-372.459 -812.255 -3.78582e-15)
(-406.598 -812.338 9.65485e-15)
(-443.399 -812.33 9.01376e-15)
(-483.021 -812.222 -2.08269e-14)
(-525.261 -812.391 -1.6681e-14)
(-570.63 -812.448 -5.21062e-15)
(-619.3 -812.385 4.40395e-14)
(-671.449 -812.191 8.36474e-15)
(-726.856 -812.249 -1.47761e-14)
(-786.093 -812.16 -1.59803e-14)
(-848.942 -812.31 -1.10089e-14)
(-915.999 -812.297 4.31566e-14)
(-987.463 -812.108 9.0678e-15)
(-1063.13 -812.134 -1.06057e-14)
(-1143.62 -811.963 1.16242e-14)
(-1228.75 -811.99 -2.4979e-14)
(-1319.15 -811.798 -2.20038e-14)
(-1414.67 -811.784 1.77567e-14)
(-1515.58 -811.939 -4.62147e-14)
(-1622.5 -811.841 -1.10025e-14)
(-1735.7 -811.472 6.39244e-14)
(-1854.84 -811.657 -3.77066e-14)
(-1980.86 -811.546 6.04025e-22)
(-2114.04 -811.12 3.19831e-14)
(-2254.31 -811.218 -2.29137e-14)
(-2402.46 -810.971 -6.2268e-14)
(-2558.75 -810.792 4.03154e-15)
(-2723.64 -810.667 8.30525e-14)
(-2897.68 -810.58 -8.83594e-14)
(-3081.42 -810.514 -1.40943e-21)
(-3275.26 -810.001 6.6582e-14)
(-3480.22 -809.916 -3.53743e-14)
(-3696.47 -809.334 8.61133e-14)
(-3925.52 -809.142 3.99006e-14)
(-4167.91 -808.858 -1.27093e-13)
(-4424.58 -808.452 8.99463e-14)
(-4696.53 -807.893 5.86864e-14)
(-4984.89 -807.142 -1.52005e-13)
(-5292.12 -806.635 1.09319e-14)
(-5618.68 -805.855 -1.14221e-13)
(-5966.1 -804.749 -7.15482e-14)
(-6337.93 -803.742 1.1795e-13)
(-6734.65 -802.285 -4.67077e-14)
(-7160.79 -800.787 5.10797e-14)
(-7619.62 -799.158 2.32346e-13)
(-8111.87 -796.801 2.15973e-14)
(-8647.5 -794.559 -1.65025e-13)
(-9224.96 -791.297 -1.98256e-13)
(-9852.87 -787.302 1.10818e-13)
(-10537.7 -782.325 3.18075e-14)
(-11292.5 -776.506 1.04257e-13)
(-12122 -768.955 2.67268e-13)
(-13037.3 -759.149 -3.97547e-13)
(-14058.9 -746.781 -6.43052e-21)
(-15205.7 -730.83 3.28924e-13)
(-16501.1 -709.913 -1.58102e-13)
(-17974.3 -682.156 5.48094e-13)
(-19663.3 -645.035 -8.74185e-15)
(-21632.8 -595.013 -6.59652e-13)
(-23941.8 -527.588 5.01009e-13)
(-26714.2 -437.19 5.92503e-15)
(-30080.4 -322.076 -6.07133e-13)
(-34239.6 -192.968 3.48025e-13)
(-39667.5 -77.1987 -1.20959e-12)
(-46991 -15.1132 -9.5609e-13)
(-57764.6 -1.01265 1.76145e-12)
(-75211.4 -1.66826 -1.52893e-12)
(-109439 0.0447752 1.11238e-12)
(0.00918671 -1356.67 -7.35451e-14)
(0.309673 -1356.68 3.67698e-14)
(0.587663 -1356.7 -1.08326e-26)
(0.562341 -1356.71 3.67622e-14)
(0.538842 -1356.72 5.51444e-14)
(0.516192 -1356.72 -5.51558e-14)
(0.494117 -1356.73 1.50672e-17)
(0.472463 -1356.73 4.8023e-18)
(0.451065 -1356.73 -2.06296e-26)
(0.429765 -1356.74 -1.84003e-14)
(0.408413 -1356.74 8.30254e-18)
(0.386863 -1356.74 -5.51657e-14)
(0.364964 -1356.74 1.83724e-14)
(0.342552 -1356.74 -5.5155e-14)
(0.319447 -1356.75 -3.67649e-14)
(0.295446 -1356.75 0)
(0.270315 -1356.75 3.67748e-14)
(0.243787 -1356.75 -3.67773e-14)
(0.215554 -1356.75 -3.29274e-27)
(0.185258 -1356.75 -1.83874e-14)
(0.152487 -1356.75 -1.8389e-14)
(0.116762 -1356.75 1.18682e-18)
(0.0775325 -1356.75 1.8389e-14)
(0.0341611 -1356.75 -1.83885e-14)
(-0.0140857 -1356.75 1.83876e-14)
(-0.0680517 -1356.75 -5.51644e-14)
(-0.128707 -1356.75 5.5165e-14)
(-0.197163 -1356.75 -5.51603e-14)
(-0.274693 -1356.75 -1.83846e-14)
(-0.362753 -1356.75 -1.83837e-14)
(-0.463004 -1356.75 -2.35308e-17)
(-0.577339 -1356.75 -1.17366e-17)
(-0.707913 -1356.74 1.84017e-14)
(-0.857171 -1356.74 3.67832e-14)
(-1.02789 -1356.74 -3.67953e-14)
(-1.2232 -1356.73 1.83498e-14)
(-1.44667 -1356.73 1.84165e-14)
(-1.7023 -1356.72 -3.67739e-14)
(-1.99459 -1356.71 1.83868e-14)
(-2.32864 -1356.7 1.10368e-13)
(-2.71014 -1356.69 -1.84692e-14)
(-3.14549 -1356.68 7.34496e-14)
(-3.64186 -1356.66 3.68094e-14)
(-4.20723 -1356.64 3.67719e-14)
(-4.85055 -1356.62 1.83857e-14)
(-5.58175 -1356.6 5.54397e-14)
(-6.4119 -1356.57 -1.28499e-13)
(-7.35327 -1356.54 3.63206e-14)
(-8.41947 -1356.5 7.32795e-14)
(-9.62556 -1356.46 3.72562e-14)
(-10.9882 -1356.42 1.81595e-14)
(-12.5256 -1356.36 3.67643e-14)
(-14.2238 -1356.91 5.61807e-14)
(-16.1697 -1356.84 1.83886e-14)
(-18.3569 -1356.76 5.42298e-14)
(-20.8118 -1356.67 -1.94441e-14)
(-23.5636 -1356.57 5.56341e-14)
(-26.6438 -1356.46 5.67753e-14)
(-30.0256 -1356.94 -5.57803e-14)
(-33.8636 -1356.8 7.32079e-14)
(-38.1424 -1356.63 1.83858e-14)
(-42.906 -1356.45 -1.92556e-14)
(-48.1142 -1356.85 7.30661e-14)
(-53.9861 -1356.62 5.40595e-14)
(-60.4964 -1356.36 5.45316e-14)
(-67.592 -1356.69 7.56072e-14)
(-75.5518 -1356.36 2.06859e-14)
(-84.2092 -1356.61 2.56882e-29)
(-93.7474 -1356.82 5.6118e-14)
(-104.394 -1356.38 2.05045e-14)
(-115.937 -1356.49 -3.67678e-14)
(-128.603 -1356.55 4.99255e-14)
(-142.483 -1356.56 2.89651e-15)
(-157.673 -1356.5 3.20531e-15)
(-174.275 -1356.37 3.4993e-14)
(-192.17 -1356.78 2.0341e-14)
(-211.905 -1356.48 5.46045e-15)
(-233.137 -1356.72 7.11784e-14)
(-256.474 -1356.24 1.82483e-14)
(-281.53 -1356.28 -5.72317e-15)
(-308.689 -1356.2 4.88644e-14)
(-337.783 -1356.62 1.03001e-22)
(-369.551 -1356.29 4.38745e-14)
(-403.52 -1356.44 8.99389e-14)
(-440.148 -1356.44 -4.62018e-14)
(-479.592 -1356.27 8.63139e-15)
(-521.651 -1356.57 2.89895e-14)
(-567.211 -1356.04 4.25208e-14)
(-615.703 -1355.94 -1.83765e-14)
(-667.277 -1356.29 -3.67622e-14)
(-722.493 -1356.4 -2.20311e-14)
(-781.538 -1356.27 -5.81002e-14)
(-844.602 -1355.88 7.47085e-14)
(-911.468 -1355.88 5.55871e-14)
(-982.74 -1355.58 4.81913e-15)
(-1058.21 -1355.64 -1.07561e-14)
(-1138.11 -1356.05 -1.73523e-22)
(-1223.45 -1355.44 -7.34786e-14)
(-1313.27 -1355.82 -1.33486e-14)
(-1408.98 -1355.14 1.43214e-14)
(-1509.7 -1355.42 -9.1847e-14)
(-1616.44 -1355.28 3.86723e-14)
(-1729.14 -1355.39 1.75756e-14)
(-1848.41 -1355.02 -7.34559e-14)
(-1974.25 -1354.86 3.50184e-14)
(-2107.05 -1354.89 2.14169e-14)
(-2247.36 -1354.37 -6.89325e-14)
(-2395.36 -1353.98 -3.03449e-14)
(-2551.5 -1353.72 1.83463e-14)
(-2716.25 -1353.54 -1.81573e-14)
(-2890.15 -1353.42 -6.60611e-14)
(-3073.63 -1352.6 1.83311e-14)
(-3267.49 -1352.52 -7.33201e-14)
(-3472.05 -1351.65 5.29365e-22)
(-3688.53 -1351.47 3.74916e-14)
(-3917.5 -1351.18 -1.8312e-14)
(-4159.21 -1349.97 -6.05714e-14)
(-4415.71 -1349.32 1.82868e-14)
(-4687.51 -1348.42 -3.6549e-14)
(-4976.8 -1347.99 1.82687e-14)
(-5282.83 -1346.39 5.36968e-14)
(-5609.28 -1345.12 -7.52447e-14)
(-5956.61 -1343.31 -5.92984e-15)
(-6328.37 -1341.66 6.4324e-14)
(-6725.05 -1339.26 -1.54863e-13)
(-7151.18 -1336.79 5.43508e-14)
(-7610.03 -1334.11 2.13974e-13)
(-8102.36 -1330.21 -5.40831e-14)
(-8634.75 -1325.69 -2.11467e-13)
(-9212.02 -1320.28 -1.69376e-13)
(-9839.78 -1313.65 1.46621e-13)
(-10529.3 -1306.15 1.77017e-14)
(-11279.3 -1295.7 1.14647e-13)
(-12109 -1283.13 1.76603e-13)
(-13024.6 -1266.79 -5.63884e-13)
(-14046.8 -1246.16 5.0666e-14)
(-15194.6 -1219.55 2.59304e-13)
(-16491.4 -1184.62 -1.8368e-13)
(-17955.8 -1138.02 1.54231e-14)
(-19659.4 -1076.2 -4.37557e-14)
(-21619.5 -992.888 0)
(-23934.3 -880.528 2.19411e-13)
(-26695.8 -731.139 -9.90878e-15)
(-30048 -541.595 -3.0542e-13)
(-34250.2 -324.478 3.5253e-13)
(-39657.3 -132.473 -1.62135e-12)
(-46988.8 -26.3178 -4.75829e-13)
(-57765 -0.801451 3.52289e-12)
(-75211.8 -0.468847 -3.05795e-12)
(-109439 0.0265282 -1.33798e-18)
(0.007426 -1904.62 1.29062e-13)
(0.303855 -1904.62 -2.58093e-14)
(0.580666 -1904.63 -2.58244e-14)
(0.55754 -1904.64 -5.16425e-14)
(0.535825 -1904.65 -2.5802e-14)
(0.514319 -1904.66 -1.03247e-13)
(0.492969 -1904.66 5.1626e-14)
(0.471801 -1904.67 -2.58083e-14)
(0.450763 -1904.67 5.16263e-14)
(0.429759 -1904.68 -2.58132e-14)
(0.408677 -1904.68 4.15395e-18)
(0.387394 -1904.68 2.58015e-14)
(0.365774 -1904.69 -2.58133e-14)
(0.343667 -1904.69 -5.16162e-14)
(0.320904 -1904.69 2.58101e-14)
(0.297291 -1904.69 2.58134e-14)
(0.272606 -1904.7 -5.16269e-14)
(0.246593 -1904.7 5.16194e-14)
(0.218954 -1904.7 -2.58113e-14)
(0.189346 -1904.7 -2.58116e-14)
(0.15737 -1904.7 -2.58167e-14)
(0.122563 -1904.7 -2.58098e-14)
(0.0843936 -1904.7 -2.58127e-14)
(0.0422439 -1904.7 5.16258e-14)
(-0.00459689 -1904.7 -1.03254e-13)
(-0.0569474 -1904.7 1.17248e-29)
(-0.115749 -1904.7 -2.58135e-14)
(-0.182082 -1904.7 -5.16289e-14)
(-0.257185 -1904.7 -2.58057e-14)
(-0.342473 -1904.7 -5.16235e-14)
(-0.439565 -1904.7 -5.16403e-14)
(-0.550306 -1904.69 7.74458e-14)
(-0.676795 -1904.69 6.87921e-18)
(-0.821419 -1904.68 -2.58383e-14)
(-0.986889 -1904.68 -1.00311e-17)
(-1.17627 -1904.67 2.58012e-14)
(-1.39304 -1904.66 2.58272e-14)
(-1.64111 -1904.65 1.66809e-17)
(-1.92492 -1904.64 1.95656e-17)
(-2.24942 -1904.63 2.2864e-17)
(-2.62022 -1904.61 -2.58123e-14)
(-3.04358 -1904.6 5.15933e-14)
(-3.52655 -1904.58 2.58477e-14)
(-4.07697 -1904.55 2.57701e-14)
(-4.70362 -1904.52 1.03149e-13)
(-5.41628 -1904.49 5.15113e-14)
(-6.22585 -1904.46 -2.56203e-14)
(-7.1444 -1904.41 2.61001e-14)
(-8.18534 -1904.36 1.02986e-13)
(-9.36352 -1904.31 2.59034e-14)
(-10.6953 -1904.25 -5.16147e-14)
(-12.1685 -1905.02 1.03519e-13)
(-13.8604 -1904.94 4.22647e-16)
(-15.7655 -1904.85 -1.03422e-13)
(-17.908 -1904.74 -2.67242e-14)
(-20.314 -1904.62 5.12118e-14)
(-23.0125 -1904.48 2.69801e-14)
(-26.0347 -1904.33 -7.93882e-16)
(-29.3541 -1905 -5.22319e-14)
(-33.1237 -1904.8 2.6825e-14)
(-37.3284 -1904.58 -2.69502e-14)
(-42.0119 -1904.33 5.1617e-14)
(-47.1346 -1904.9 9.58189e-16)
(-52.9135 -1904.58 7.79736e-14)
(-59.3239 -1904.23 1.30242e-13)
(-66.3134 -1904.69 5.16267e-14)
(-74.1587 -1904.24 -2.26133e-15)
(-82.6947 -1904.6 8.40541e-16)
(-92.1035 -1904.91 -2.3944e-14)
(-102.611 -1904.29 -4.17193e-15)
(-114.008 -1904.47 -2.34927e-14)
(-126.52 -1904.57 -2.45257e-14)
(-140.237 -1904.59 4.8773e-14)
(-155.255 -1904.51 -7.42768e-14)
(-171.675 -1904.35 -4.98724e-14)
(-189.604 -1904.07 2.58049e-14)
(-208.918 -1904.55 2.58114e-14)
(-230.192 -1904.03 1.50147e-13)
(-253.063 -1904.25 -2.83796e-14)
(-277.895 -1904.32 -1.73344e-14)
(-304.821 -1904.23 4.85159e-14)
(-333.979 -1903.97 -6.78939e-15)
(-365.195 -1904.41 3.69455e-14)
(-398.908 -1904.65 2.17581e-14)
(-435.617 -1903.78 -8.1831e-14)
(-474.45 -1904.48 6.12659e-14)
(-516.601 -1904.03 1.05019e-14)
(-561.517 -1904.21 2.00994e-14)
(-609.726 -1904.12 1.01562e-15)
(-661.408 -1903.72 -5.83233e-14)
(-716.341 -1903.92 -3.30841e-14)
(-775.1 -1903.78 7.52372e-14)
(-837.465 -1904.19 8.59323e-14)
(-904.453 -1903.3 1.66013e-14)
(-975.02 -1903.86 1.9821e-14)
(-1050.62 -1903.06 -4.09036e-14)
(-1130.21 -1903.68 -6.02635e-14)
(-1215.27 -1902.87 -5.04937e-14)
(-1304.8 -1903.45 5.30499e-14)
(-1400.23 -1902.55 -9.42662e-14)
(-1500.67 -1903 -5.15808e-14)
(-1607.13 -1902.85 1.07466e-13)
(-1719.88 -1902.08 -1.4726e-13)
(-1838.57 -1902.6 -5.86673e-14)
(-1964.43 -1901.45 1.05638e-13)
(-2096.94 -1901.54 -1.79426e-13)
(-2236.99 -1900.86 -5.1523e-14)
(-2384.59 -1901.4 4.69449e-14)
(-2540.52 -1901.08 -1.29056e-13)
(-2705.1 -1899.87 -5.14961e-14)
(-2878.76 -1899.77 -1.87185e-14)
(-3062.14 -1899.73 -3.65034e-14)
(-3255.66 -1898.64 -1.83708e-14)
(-3460.32 -1898.55 5.40557e-14)
(-3676.32 -1897.31 1.16542e-14)
(-3905.13 -1896.98 -2.57088e-14)
(-4146.7 -1895.35 -1.19209e-13)
(-4403.08 -1894.51 4.47546e-14)
(-4674.79 -1893.32 7.31758e-14)
(-4962.96 -1891.69 -5.04455e-14)
(-5270.02 -1890.63 -8.15103e-14)
(-5595.08 -1887.8 3.12861e-14)
(-5943.88 -1886.47 -1.81248e-21)
(-6313.91 -1883.1 -1.02833e-13)
(-6712.61 -1880.96 1.10968e-13)
(-7136.64 -1876.43 1.234e-13)
(-7595.52 -1872.74 -2.31612e-13)
(-8087.98 -1867.34 -1.07517e-13)
(-8620.57 -1861.07 1.50023e-13)
(-9198.16 -1853.55 -2.30241e-13)
(-9826.39 -1844.31 7.48843e-14)
(-10511.8 -1832.75 2.46023e-13)
(-11262.1 -1818.14 -4.5789e-13)
(-12092.3 -1800.56 -2.44021e-14)
(-13008.8 -1777.67 4.80723e-13)
(-14032.3 -1748.74 -7.15309e-14)
(-15173.5 -1710.63 -3.78008e-13)
(-16472 -1661.7 5.02283e-13)
(-17939.1 -1596.37 1.60705e-13)
(-19634.4 -1509.65 -1.79112e-13)
(-21599.5 -1393.13 -4.76853e-13)
(-23923.1 -1235.89 2.09665e-13)
(-26678.4 -1028.53 5.28401e-13)
(-30049.7 -763.695 1.035e-14)
(-34249.5 -462.714 -1.40504e-12)
(-39641.3 -194.659 3.97654e-13)
(-46985 -40.9212 1.91196e-12)
(-57765 -1.82247 -3.52293e-12)
(-75212.1 -0.105986 7.64481e-13)
(-109439 0.0151065 -1.11238e-12)
(0.00632942 -2457.66 -1.2867e-19)
(0.300015 -2457.66 -3.32922e-14)
(0.575572 -2457.67 5.85035e-18)
(0.553465 -2457.68 -9.99346e-14)
(0.532907 -2457.69 -5.41668e-18)
(0.512328 -2457.7 -3.33184e-14)
(0.491661 -2457.7 -3.33081e-14)
(0.471006 -2457.71 3.3313e-14)
(0.450375 -2457.71 9.99247e-14)
(0.429724 -2457.72 -4.36788e-18)
(0.408972 -2457.72 6.66167e-14)
(0.388021 -2457.73 3.33084e-14)
(0.366753 -2457.73 -3.33122e-14)
(0.345033 -2457.73 2.04419e-28)
(0.322704 -2457.74 9.99257e-14)
(0.299587 -2457.74 9.13536e-18)
(0.275472 -2457.74 -3.33114e-14)
(0.250116 -2457.75 -5.08455e-18)
(0.223238 -2457.75 -9.99193e-14)
(0.19451 -2457.75 3.25068e-29)
(0.163553 -2457.75 3.33071e-14)
(0.129926 -2457.75 -3.33074e-14)
(0.0931187 -2457.75 3.33078e-14)
(0.0525402 -2457.75 -6.66176e-14)
(0.00750935 -2457.75 -6.66175e-14)
(-0.0427597 -2457.75 -6.66176e-14)
(-0.0991713 -2457.75 -9.99263e-14)
(-0.162765 -2457.75 6.66192e-14)
(-0.234731 -2457.75 -3.33064e-14)
(-0.316437 -2457.75 -3.33087e-14)
(-0.409442 -2457.75 -6.66173e-14)
(-0.515527 -2457.74 3.33086e-14)
(-0.636722 -2457.74 -1.66556e-13)
(-0.775337 -2457.73 6.66248e-14)
(-0.933995 -2457.72 4.54636e-29)
(-1.11567 -2457.72 3.32856e-14)
(-1.32373 -2457.71 3.33216e-14)
(-1.56198 -2457.69 -1.58766e-17)
(-1.83472 -2457.68 5.59393e-25)
(-2.14679 -2457.66 -3.32857e-14)
(-2.50362 -2457.65 -3.33328e-14)
(-2.91135 -2457.62 -2.95921e-17)
(-3.37681 -2457.6 -6.66133e-14)
(-3.90768 -2457.57 -6.64934e-14)
(-4.51253 -2457.53 3.33517e-14)
(-5.20093 -2457.49 -7.92856e-25)
(-5.98353 -2457.45 1.3334e-13)
(-6.87216 -2457.4 -6.98514e-17)
(-7.87997 -2457.34 -1.0015e-13)
(-9.02152 -2457.27 -3.33939e-14)
(-10.2861 -2458.28 -3.32114e-14)
(-11.7422 -2458.19 3.35534e-14)
(-13.3851 -2458.09 -1.00076e-13)
(-15.2365 -2457.97 -6.67784e-14)
(-17.3201 -2457.84 -1.66374e-13)
(-19.6618 -2457.69 9.93242e-14)
(-22.2899 -2457.52 3.33056e-14)
(-25.2355 -2457.32 -1.65745e-13)
(-28.4725 -2458.2 6.63403e-14)
(-32.1516 -2457.96 4.90206e-24)
(-36.2582 -2457.68 -9.95546e-14)
(-40.8357 -2457.36 9.94953e-14)
(-45.8451 -2458.11 -9.99407e-14)
(-51.5008 -2457.71 3.48786e-14)
(-57.7787 -2457.26 3.21276e-14)
(-64.6272 -2457.87 -6.79344e-14)
(-72.3204 -2457.31 3.40378e-14)
(-80.695 -2457.79 3.2489e-14)
(-89.9317 -2458.2 -3.24007e-14)
(-100.255 -2457.42 3.53423e-14)
(-111.458 -2457.67 3.21747e-14)
(-123.763 -2457.82 -1.01187e-13)
(-137.262 -2457.86 -6.66206e-14)
(-152.051 -2457.8 -3.09101e-15)
(-168.229 -2457.61 5.12985e-15)
(-185.905 -2457.28 -2.57439e-14)
(-204.953 -2457.93 -6.87054e-14)
(-225.95 -2457.29 -7.34949e-14)
(-248.532 -2457.61 3.33068e-14)
(-273.063 -2457.73 -3.0533e-14)
(-299.677 -2457.66 -3.04604e-15)
(-328.513 -2457.37 2.99644e-14)
(-359.714 -2456.83 -7.39051e-14)
(-393.098 -2457.19 -3.33011e-14)
(-429.124 -2457.27 7.96898e-14)
(-467.953 -2457.06 4.75645e-15)
(-509.748 -2456.53 -1.27988e-13)
(-554.298 -2456.82 -5.53241e-14)
(-602.137 -2456.76 4.82295e-14)
(-653.443 -2456.31 -1.32837e-14)
(-707.991 -2456.62 7.37832e-14)
(-766.364 -2456.5 2.55022e-14)
(-828.335 -2457.11 -5.85586e-14)
(-894.936 -2456.03 -5.996e-15)
(-965.104 -2456.83 -3.71633e-14)
(-1040.31 -2455.87 -5.44315e-14)
(-1119.93 -2455.53 -5.51737e-14)
(-1204.18 -2455.79 7.8804e-14)
(-1293.72 -2455.39 6.97699e-15)
(-1388.38 -2455.54 -4.73908e-14)
(-1488.81 -2454.97 1.45211e-13)
(-1594.89 -2454.87 -3.24222e-14)
(-1706.93 -2455.22 -1.18599e-13)
(-1825.57 -2454.73 1.74027e-13)
(-1950.8 -2454.61 -6.65324e-14)
(-2083.23 -2453.55 -1.08853e-13)
(-2222.74 -2454.08 1.44963e-13)
(-2370.19 -2453.57 -5.73437e-14)
(-2525.9 -2451.96 -2.56743e-14)
(-2690.1 -2451.83 9.96853e-14)
(-2863.47 -2451.81 5.82108e-14)
(-3046.48 -2450.52 6.41764e-14)
(-3239.87 -2450.58 -3.23709e-14)
(-3444.03 -2449.23 1.81328e-15)
(-3659.76 -2447.74 8.05243e-15)
(-3888.29 -2447.43 -1.45382e-13)
(-4129.65 -2445.45 -3.3142e-14)
(-4385.81 -2444.5 1.78316e-13)
(-4657.34 -2443.09 -9.93303e-14)
(-4945.37 -2441.11 -3.30832e-14)
(-5251.12 -2438.44 1.60123e-21)
(-5577.34 -2436.37 -1.464e-13)
(-5924.54 -2433.32 6.02194e-14)
(-6296.24 -2430.58 9.59951e-22)
(-6693.01 -2426.48 -1.00915e-13)
(-7117.02 -2420.78 3.95326e-14)
(-7575.93 -2416.15 1.15507e-21)
(-8068.54 -2409.32 -8.20118e-14)
(-8601.39 -2401.36 5.48835e-14)
(-9175.67 -2390.32 -1.54135e-13)
(-9804.05 -2378.52 -2.66722e-13)
(-10489.8 -2363.73 1.05193e-14)
(-11240.7 -2344.99 4.38107e-13)
(-12065.9 -2321.08 9.43694e-14)
(-12983.1 -2291.67 3.1058e-14)
(-14007.8 -2254.46 -1.42381e-13)
(-15150.9 -2205.37 -1.83888e-13)
(-16442.6 -2141.55 1.38106e-13)
(-17913.1 -2057.5 1.26307e-13)
(-19613.9 -1945.82 -2.52105e-13)
(-21573 -1796.25 -6.82172e-13)
(-23890.8 -1595.59 5.07296e-13)
(-26662.3 -1329.86 7.58948e-13)
(-30035 -993.266 -6.24037e-13)
(-34236.8 -610.425 -7.12539e-13)
(-39618.7 -265.858 4.09906e-13)
(-46979.3 -59.4653 -4.79934e-13)
(-57764.8 -3.35092 -4.54223e-17)
(-75212.2 0.0183061 7.64486e-13)
(-109439 0.0101069 2.73948e-19)
(0.00563615 -3017.28 -4.08916e-14)
(0.297272 -3017.29 4.08949e-14)
(0.571612 -3017.3 8.1784e-14)
(0.550007 -3017.31 4.08754e-14)
(0.530193 -3017.32 1.30207e-28)
(0.510325 -3017.33 -8.17744e-14)
(0.490259 -3017.33 -8.17949e-14)
(0.4701 -3017.34 4.08782e-14)
(0.449895 -3017.35 -8.17808e-14)
(0.429629 -3017.35 -8.17811e-14)
(0.40925 -3017.36 1.9962e-29)
(0.388681 -3017.36 -5.88615e-27)
(0.367822 -3017.37 3.73869e-18)
(0.346555 -3017.37 -4.08965e-14)
(0.324737 -3017.37 -3.30075e-18)
(0.302203 -3017.38 1.22868e-17)
(0.27876 -3017.38 -2.39388e-28)
(0.254182 -3017.38 -4.08958e-14)
(0.228206 -3017.39 -8.17841e-14)
(0.200524 -3017.39 4.08871e-14)
(0.170778 -3017.39 4.08915e-14)
(0.138554 -3017.39 4.08975e-14)
(0.103368 -3017.39 8.17887e-14)
(0.0646639 -3017.4 -5.2102e-28)
(0.0217941 -3017.4 -8.17862e-14)
(-0.0259868 -3017.4 -2.6414e-19)
(-0.0795383 -3017.4 -4.08901e-14)
(-0.139849 -3017.39 1.42148e-18)
(-0.208055 -3017.39 9.2994e-29)
(-0.285459 -3017.39 -1.74882e-26)
(-0.373551 -3017.39 -3.79692e-18)
(-0.474034 -3017.38 -9.63654e-18)
(-0.588854 -3017.38 1.19707e-17)
(-0.720223 -3017.37 4.09076e-14)
(-0.870659 -3017.36 -1.76995e-17)
(-1.04302 -3017.35 -4.08928e-14)
(-1.24055 -3017.34 -8.17852e-14)
(-1.46691 -3017.33 4.08924e-14)
(-1.72624 -3017.31 1.75847e-28)
(-2.02322 -3017.29 7.90309e-29)
(-2.3631 -3017.27 4.09157e-14)
(-2.75181 -3017.25 -5.5941e-17)
(-3.19598 -3017.22 8.17493e-14)
(-3.70304 -3017.18 8.18562e-14)
(-4.28132 -3017.14 4.08899e-14)
(-4.94011 -3017.1 5.02132e-17)
(-5.68977 -3017.04 -8.16036e-14)
(-6.54182 -3016.98 -4.10872e-14)
(-7.48821 -3018.25 -4.12094e-14)
(-8.58244 -3018.17 -8.15461e-14)
(-9.82156 -3018.08 8.20049e-14)
(-11.223 -3017.98 4.09012e-14)
(-12.8058 -3017.86 2.0683e-28)
(-14.5912 -3017.72 4.04528e-14)
(-16.6023 -3017.56 -4.08956e-14)
(-18.8646 -3017.38 -1.62806e-13)
(-21.406 -3017.18 1.62909e-13)
(-24.257 -3016.95 -4.13805e-14)
(-27.3923 -3018.04 8.35277e-16)
(-30.9595 -3017.75 8.11669e-14)
(-34.9449 -3017.42 -4.08936e-14)
(-39.3911 -3017.05 -1.63554e-13)
(-44.26 -3017.98 2.02445e-23)
(-49.7629 -3017.51 8.43187e-14)
(-55.8763 -3016.98 -4.14556e-14)
(-62.5497 -3017.74 1.63592e-13)
(-70.0536 -3017.07 3.20424e-23)
(-78.2274 -3017.68 -7.95134e-16)
(-87.3874 -3016.85 8.35484e-14)
(-97.3437 -3017.29 -1.97888e-15)
(-108.303 -3017.62 -8.39943e-14)
(-120.352 -3017.83 7.93519e-14)
(-133.578 -3017.93 -8.04433e-14)
(-148.079 -3017.88 4.69205e-14)
(-163.955 -3017.69 8.17946e-14)
(-181.313 -3017.33 3.72066e-14)
(-200.264 -3016.79 -2.03556e-15)
(-220.676 -3017.44 4.31369e-14)
(-242.895 -3017.88 8.17997e-14)
(-267.326 -3016.7 -7.63335e-14)
(-293.563 -3016.67 2.98389e-15)
(-321.7 -3017.76 6.87171e-14)
(-352.482 -3017.18 -7.8198e-14)
(-385.433 -3017.68 9.35476e-14)
(-421.362 -3016.45 4.08805e-14)
(-459.748 -3016.27 2.21858e-14)
(-500.719 -3017.12 4.08896e-14)
(-545.177 -3016.14 -5.40457e-14)
(-592.544 -3016.15 2.88307e-14)
(-642.966 -3017.13 7.52441e-14)
(-697.431 -3016.17 2.12669e-22)
(-755.311 -3016.12 -4.08761e-14)
(-817.207 -3015.51 7.34292e-14)
(-882.888 -3015.76 1.04665e-13)
(-952.981 -3015.37 -6.23589e-14)
(-1027.26 -3015.79 5.13131e-14)
(-1106.38 -3015.5 4.08676e-14)
(-1190.14 -3015.94 -2.87766e-14)
(-1279.18 -3015.6 5.38711e-14)
(-1373.76 -3014.4 2.68893e-14)
(-1473.31 -3015.35 -2.58903e-14)
(-1579.3 -3013.84 -4.08452e-14)
(-1690.86 -3014.42 1.05372e-13)
(-1809.04 -3013.96 5.92345e-14)
(-1933.81 -3013.97 -1.9656e-14)
(-2065.81 -3012.82 -2.09977e-14)
(-2205.1 -3012.04 2.24135e-14)
(-2352.11 -3011.57 -4.08144e-14)
(-2507.28 -3011.37 8.16234e-14)
(-2671.17 -3009.75 2.10405e-27)
(-2844.13 -3009.9 8.15836e-14)
(-3026.78 -3008.49 4.07727e-14)
(-3219.8 -3008.75 -1.55056e-13)
(-3423.64 -3007.27 4.67128e-14)
(-3639.08 -3005.62 -5.54841e-22)
(-3866.89 -3003.73 8.00128e-14)
(-4108.48 -3003.21 1.23162e-13)
(-4363.76 -3000.51 -3.69048e-15)
(-4635.01 -2998.97 -4.06437e-14)
(-4922.81 -2996.74 5.94613e-14)
(-5228.39 -2993.66 -1.46858e-13)
(-5554.47 -2991.33 1.59178e-14)
(-5901.61 -2987.8 5.99863e-14)
(-6271.54 -2982.84 -1.50814e-13)
(-6668.16 -2978.01 2.74183e-14)
(-7092.14 -2971.22 1.84442e-13)
(-7551.06 -2965.74 -1.93697e-13)
(-8040.91 -2955.75 -2.83636e-13)
(-8573.71 -2946.18 2.6144e-13)
(-9151.82 -2934.62 -5.32512e-14)
(-9776.79 -2918.54 -3.77233e-13)
(-10463.1 -2900.56 6.10376e-13)
(-11214.9 -2877.71 2.27986e-13)
(-12041.5 -2848.47 -3.60601e-13)
(-12953.9 -2810.94 1.31669e-13)
(-13973 -2764.01 -4.63541e-13)
(-15118.1 -2703.98 -5.34289e-13)
(-16413.1 -2625.82 3.33659e-13)
(-17888.8 -2522.74 3.41895e-14)
(-19572.1 -2385.66 -6.46635e-14)
(-21539.8 -2203.2 2.78657e-13)
(-23854.9 -1959.82 -1.8935e-13)
(-26626.4 -1638.93 2.22116e-14)
(-30003.3 -1233.36 3.21681e-13)
(-34211.5 -770.891 -3.26844e-13)
(-39636 -344.557 -1.12223e-26)
(-46971.1 -83.4924 4.80827e-13)
(-57764.3 -5.67269 -5.86985e-13)
(-75212.3 0.0315902 -6.52584e-26)
(-109439 0.00797629 1.11238e-12)
(0.00519602 -3586.61 9.72153e-14)
(0.295297 -3586.61 9.72213e-14)