/*--------------------------------*- C++ -*----------------------------------*\
| =========                 |                                                 |
| \\      /  F ield         | foam-extend: Open Source CFD                    |
|  \\    /   O peration     | Version:     4.0                                |
|   \\  /    A nd           | Web:         http://www.foam-extend.org         |
|    \\/     M anipulation  |                                                 |
\*---------------------------------------------------------------------------*/
FoamFile
{
    version     2.0;
    format      ascii;
    class       volScalarField;
    location    "205.9";
    object      solidificationTime;
}
// * * * * * * * * * * * * * * * * * * * * * * * * * * * * * * * * * * * * * //

dimensions      [0 0 0 0 0 0 0];

internalField   nonuniform List<scalar> 
6000
(
205.9
205.9
205.9
205.9
205.9
205.9
205.9
205.9
205.9
205.9
205.9
205.9
205.9
205.9
205.9
205.9
205.9
205.9
205.9
205.9
205.9
205.9
205.9
205.9
205.9
205.9
205.9
205.9
205.9
205.9
205.9
205.9
205.9
205.9
205.9
205.9
205.9
205.9
205.9
205.9
205.9
205.9
205.9
205.9
205.9
205.9
205.9
205.9
205.9
205.9
205.9
205.8
205.8
205.8
205.8
205.8
205.8
205.8
205.7
205.7
205.7
205.7
205.6
205.6
205.5
205.5
205.4
205.4
205.3
205.2
205.2
205.1
205
204.9
204.7
204.6
204.5
204.3
204.1
203.9
203.7
203.5
203.2
203
202.7
202.3
202
201.6
201.2
200.8
200.3
199.8
199.2
198.6
198
197.3
196.5
195.8
194.9
194
193.1
192.1
191
189.9
188.7
187.4
186.1
184.6
183.1
181.5
179.8
178.1
176.2
174.3
172.2
170
167.7
165.3
162.8
160.2
157.4
154.5
151.5
148.3
145
141.5
137.8
134
129.9
125.7
121.3
116.7
111.8
106.7
101.4
95.7
89.8
83.7
77.1
70.3
63.1
55.5
47.7
39.6
31.5
23.7
16.8
10.9
6.2
2.7
205.6
205.6
205.6
205.6
205.6
205.6
205.6
205.6
205.6
205.6
205.6
205.6
205.6
205.6
205.6
205.6
205.6
205.6
205.6
205.6
205.6
205.6
205.6
205.6
205.6
205.6
205.6
205.6
205.6
205.6
205.6
205.6
205.6
205.6
205.6
205.6
205.6
205.6
205.6
205.6
205.6
205.6
205.6
205.6
205.6
205.6
205.6
205.6
205.6
205.6
205.6
205.6
205.5
205.5
205.5
205.5
205.5
205.5
205.4
205.4
205.4
205.4
205.3
205.3
205.3
205.2
205.2
205.1
205
205
204.9
204.8
204.7
204.6
204.5
204.3
204.2
204
203.8
203.6
203.4
203.2
203
202.7
202.4
202.1
201.7
201.3
200.9
200.5
200
199.5
198.9
198.3
197.7
197
196.3
195.5
194.7
193.8
192.8
191.8
190.8
189.6
188.4
187.2
185.8
184.4
182.9
181.3
179.6
177.8
176
174
172
169.8
167.5
165.1
162.6
160
157.2
154.3
151.3
148.1
144.8
141.3
137.6
133.8
129.7
125.5
121.1
116.5
111.6
106.5
101.2
95.6
89.7
83.5
77
70.2
63
55.5
47.6
39.5
31.5
23.7
16.8
10.9
6.2
2.7
205
205
205
205
205
205
205
205
205
205
205
205
205
205
205
205
205
205
205
205
205
205
205
205
205
205
205
205
205
205
205
205
205
205
205
205
205
205
205
205
205
205
205
205
205
205
205
205
205
205
205
205
204.9
204.9
204.9
204.9
204.9
204.9
204.8
204.8
204.8
204.8
204.7
204.7
204.7
204.6
204.6
204.5
204.4
204.4
204.3
204.2
204.1
204
203.9
203.7
203.6
203.4
203.3
203.1
202.9
202.6
202.4
202.1
201.8
201.5
201.1
200.8
200.4
199.9
199.4
198.9
198.4
197.8
197.2
196.5
195.7
195
194.1
193.3
192.3
191.3
190.2
189.1
187.9
186.6
185.3
183.9
182.4
180.8
179.1
177.4
175.5
173.6
171.5
169.3
167.1
164.7
162.2
159.5
156.8
153.9
150.9
147.7
144.4
140.9
137.2
133.4
129.4
125.2
120.8
116.1
111.3
106.2
100.9
95.3
89.4
83.2
76.8
69.9
62.8
55.3
47.5
39.5
31.4
23.7
16.8
10.9
6.2
2.7
204.1
204.1
204.1
204.1
204.1
204.1
204.1
204.1
204.1
204.1
204.1
204.1
204.1
204.1
204.1
204.1
204.1
204.1
204.1
204.1
204.1
204.1
204.1
204.1
204.1
204.1
204.1
204.1
204.1
204.1
204.1
204.1
204.1
204.1
204.1
204.1
204.1
204.1
204.1
204.1
204.1
204.1
204.1
204.1
204.1
204.1
204.1
204.1
204.1
204.1
204.1
204
204
204
204
204
204
204
203.9
203.9
203.9
203.9
203.8
203.8
203.8
203.7
203.7
203.6
203.5
203.5
203.4
203.3
203.2
203.1
203
202.9
202.7
202.6
202.4
202.2
202
201.8
201.5
201.2
201
200.6
200.3
199.9
199.5
199.1
198.6
198.1
197.5
197
196.3
195.7
194.9
194.2
193.3
192.5
191.5
190.5
189.5
188.3
187.2
185.9
184.6
183.1
181.6
180.1
178.4
176.6
174.8
172.8
170.8
168.6
166.4
164
161.5
158.9
156.1
153.3
150.2
147.1
143.7
140.3
136.6
132.8
128.8
124.6
120.2
115.6
110.8
105.7
100.4
94.8
89
82.8
76.4
69.6
62.5
55
47.3
39.3
31.3
23.7
16.8
10.9
6.2
2.7
202.9
202.9
202.9
202.9
202.9
202.9
202.9
202.9
202.9
202.9
202.9
202.9
202.9
202.9
202.9
202.9
202.9
202.9
202.9
202.9
202.9
202.9
202.9
202.9
202.9
202.9
202.9
202.9
202.9
202.9
202.9
202.9
202.9
202.9
202.9
202.9
202.9
202.9
202.9
202.9
202.9
202.9
202.9
202.9
202.9
202.9
202.9
202.9
202.9
202.9
202.8
202.8
202.8
202.8
202.8
202.8
202.8
202.8
202.7
202.7
202.7
202.7
202.6
202.6
202.6
202.5
202.5
202.4
202.3
202.3
202.2
202.1
202
201.9
201.8
201.7
201.5
201.4
201.2
201
200.8
200.6
200.4
200.1
199.8
199.5
199.2
198.8
198.4
198
197.5
197
196.4
195.9
195.2
194.6
193.9
193.1
192.3
191.4
190.5
189.5
188.4
187.3
186.1
184.9
183.5
182.1
180.7
179.1
177.4
175.7
173.8
171.9
169.9
167.7
165.5
163.1
160.6
158
155.3
152.4
149.4
146.2
142.9
139.5
135.8
132
128
123.9
119.5
114.9
110.1
105.1
99.8
94.2
88.4
82.3
75.9
69.1
62.1
54.7
47
39.1
31.2
23.7
16.8
10.9
6.2
2.7
201.4
201.4
201.4
201.4
201.4
201.4
201.4
201.4
201.4
201.4
201.4
201.4
201.4
201.4
201.4
201.4
201.4
201.4
201.4
201.4
201.4
201.4
201.4
201.4
201.4
201.4
201.4
201.4
201.4
201.4
201.4
201.4
201.4
201.4
201.4
201.4
201.4
201.4
201.4
201.4
201.4
201.4
201.4
201.4
201.4
201.4
201.4
201.4
201.3
201.3
201.3
201.3
201.3
201.3
201.3
201.3
201.3
201.3
201.2
201.2
201.2
201.2
201.1
201.1
201.1
201
201
200.9
200.9
200.8
200.7
200.6
200.5
200.4
200.3
200.2
200.1
199.9
199.7
199.6
199.4
199.1
198.9
198.6
198.4
198.1
197.7
197.4
197
196.5
196.1
195.6
195.1
194.5
193.9
193.2
192.5
191.7
190.9
190.1
189.1
188.2
187.1
186
184.8
183.6
182.3
180.9
179.4
177.9
176.2
174.5
172.6
170.7
168.7
166.6
164.3
162
159.5
156.9
154.2
151.3
148.3
145.2
141.9
138.5
134.8
131.1
127.1
122.9
118.6
114
109.2
104.2
99
93.5
87.7
81.6
75.2
68.6
61.6
54.3
46.7
38.9
31.1
23.6
16.8
10.9
6.2
2.7
199.5
199.5
199.5
199.5
199.5
199.5
199.5
199.5
199.5
199.5
199.6
199.6
199.6
199.6
199.6
199.6
199.6
199.6
199.6
199.6
199.6
199.6
199.6
199.6
199.6
199.6
199.6
199.6
199.6
199.6
199.6
199.6
199.6
199.6
199.6
199.6
199.5
199.5
199.5
199.5
199.5
199.5
199.5
199.5
199.5
199.5
199.5
199.5
199.5
199.5
199.5
199.5
199.5
199.5
199.5
199.5
199.4
199.4
199.4
199.4
199.4
199.3
199.3
199.3
199.2
199.2
199.2
199.1
199
199
198.9
198.8
198.7
198.6
198.5
198.4
198.3
198.1
198
197.8
197.6
197.4
197.2
196.9
196.6
196.3
196
195.6
195.3
194.8
194.4
193.9
193.4
192.8
192.2
191.6
190.9
190.1
189.3
188.5
187.6
186.6
185.6
184.5
183.3
182.1
180.8
179.4
177.9
176.4
174.7
173
171.2
169.3
167.3
165.2
162.9
160.6
158.2
155.6
152.9
150
147.1
143.9
140.7
137.2
133.7
129.9
126
121.8
117.5
113
108.2
103.2
98
92.5
86.8
80.8
74.5
67.9
61
53.8
46.3
38.7
31
23.6
16.8
10.9
6.2
2.7
197.4
197.4
197.4
197.4
197.4
197.4
197.4
197.4
197.4
197.4
197.4
197.4
197.4
197.4
197.4
197.4
197.4
197.4
197.4
197.4
197.4
197.4
197.4
197.4
197.4
197.4
197.4
197.4
197.4
197.4
197.4
197.4
197.4
197.4
197.4
197.4
197.4
197.4
197.4
197.4
197.4
197.4
197.4
197.4
197.4
197.4
197.4
197.4
197.4
197.4
197.4
197.4
197.3
197.3
197.3
197.3
197.3
197.3
197.3
197.3
197.2
197.2
197.2
197.1
197.1
197.1
197
197
196.9
196.9
196.8
196.7
196.6
196.5
196.4
196.3
196.2
196
195.9
195.7
195.5
195.3
195.1
194.9
194.6
194.3
194
193.6
193.2
192.8
192.4
191.9
191.4
190.9
190.3
189.6
188.9
188.2
187.4
186.6
185.7
184.7
183.7
182.6
181.5
180.3
179
177.6
176.2
174.6
173
171.3
169.5
167.6
165.6
163.5
161.3
159
156.6
154
151.3
148.5
145.6
142.5
139.2
135.8
132.3
128.5
124.6
120.5
116.2
111.7
107
102.1
96.9
91.5
85.8
79.9
73.6
67.1
60.3
53.2
45.9
38.4
30.8
23.5
16.7
10.9
6.2
2.7
194.9
194.9
194.9
194.9
194.9
194.9
194.9
194.9
194.9
194.9
194.9
194.9
194.9
194.9
194.9
194.9
194.9
194.9
194.9
194.9
194.9
194.9
194.9
194.9
194.9
194.9
194.9
194.9
194.9
194.9
194.9
194.9
194.9
194.9
194.9
194.9
194.9
194.9
194.9
194.9
194.9
194.9
194.9
194.9
194.9
194.9
194.9
194.9
194.9
194.9
194.9
194.9
194.9
194.9
194.9
194.9
194.8
194.8
194.8
194.8
194.8
194.7
194.7
194.7
194.7
194.6
194.6
194.5
194.5
194.4
194.4
194.3
194.2
194.1
194
193.9
193.8
193.6
193.5
193.3
193.1
192.9
192.7
192.5
192.2
191.9
191.6
191.3
190.9
190.5
190.1
189.6
189.1
188.6
188
187.4
186.7
186
185.2
184.4
183.5
182.6
181.6
180.5
179.4
178.2
176.9
175.6
174.1
172.6
171
169.4
167.6
165.7
163.7
161.7
159.5
157.2
154.8
152.2
149.6
146.8
143.9
140.8
137.6
134.2
130.7
127
123.1
119
114.8
110.3
105.6
100.8
95.6
90.3
84.7
78.8
72.6
66.2
59.5
52.6
45.4
38
30.6
23.4
16.7
10.9
6.2
2.7
192.1
192.1
192.1
192.1
192.1
192.1
192.1
192.1
192.1
192.1
192.1
192.1
192.1
192.1
192.1
192.1
192.1
192.1
192.1
192.1
192.1
192.1
192.1
192.1
192.1
192.1
192.1
192.1
192.1
192.1
192.1
192.1
192.1
192.1
192.1
192.1
192.1
192.1
192.1
192.1
192.1
192.1
192.1
192.1
192.1
192.1
192.1
192.1
192.1
192.1
192.1
192.1
192.1
192.1
192.1
192.1
192
192
192
192
192
192
191.9
191.9
191.9
191.8
191.8
191.8
191.7
191.7
191.6
191.5
191.4
191.4
191.3
191.2
191
190.9
190.8
190.6
190.4
190.2
190
189.8
189.6
189.3
189
188.7
188.3
187.9
187.5
187
186.6
186
185.5
184.9
184.2
183.5
182.7
181.9
181.1
180.2
179.2
178.1
177
175.8
174.6
173.3
171.9
170.4
168.8
167.1
165.4
163.5
161.6
159.5
157.4
155.1
152.7
150.2
147.6
144.8
141.9
138.9
135.7
132.4
128.9
125.2
121.4
117.3
113.1
108.7
104.1
99.3
94.2
88.9
83.4
77.6
71.5
65.2
58.6
51.8
44.8
37.6
30.4
23.3
16.7
10.9
6.2
2.7
189
189
189
189
189
189
189
189
189
189
189
189
189
189
189
189
189
189
189
189
189
189
189
189
189
189
189
189
189
189
189
189
189
189
189
189
189
189
189
189
189
189
189
189
189
189
189
189
189
189
189
189
188.9
188.9
188.9
188.9
188.9
188.9
188.9
188.9
188.9
188.8
188.8
188.8
188.8
188.7
188.7
188.7
188.6
188.6
188.5
188.4
188.4
188.3
188.2
188.1
188
187.9
187.7
187.6
187.4
187.2
187
186.8
186.6
186.3
186
185.7
185.4
185
184.6
184.1
183.7
183.2
182.6
182
181.4
180.7
180
179.2
178.3
177.4
176.5
175.4
174.4
173.2
172
170.7
169.3
167.8
166.3
164.6
162.9
161.1
159.2
157.1
155
152.8
150.4
147.9
145.3
142.6
139.8
136.8
133.6
130.3
126.8
123.2
119.4
115.4
111.3
106.9
102.4
97.6
92.6
87.4
81.9
76.3
70.3
64.1
57.7
51
44.2
37.2
30.1
23.2
16.7
10.9
6.2
2.7
185.5
185.5
185.5
185.5
185.5
185.5
185.5
185.5
185.5
185.5
185.5
185.5
185.5
185.5
185.5
185.5
185.5
185.5
185.5
185.5
185.5
185.5
185.5
185.5
185.5
185.5
185.5
185.5
185.5
185.5
185.5
185.5
185.5
185.5
185.5
185.5
185.5
185.5
185.5
185.5
185.5
185.5
185.5
185.5
185.5
185.5
185.5
185.5
185.5
185.5
185.5
185.5
185.5
185.5
185.4
185.4
185.4
185.4
185.4
185.4
185.4
185.4
185.3
185.3
185.3
185.3
185.2
185.2
185.2
185.1
185
185
184.9
184.8
184.8
184.7
184.6
184.5
184.3
184.2
184
183.9
183.7
183.5
183.2
183
182.7
182.4
182.1
181.7
181.3
180.9
180.5
180
179.4
178.9
178.2
177.6
176.9
176.1
175.3
174.4
173.5
172.5
171.4
170.3
169.1
167.8
166.4
165
163.5
161.9
160.2
158.4
156.5
154.5
152.4
150.2
147.9
145.4
142.9
140.2
137.4
134.4
131.3
128
124.6
121
117.3
113.4
109.3
105
100.5
95.8
90.9
85.7
80.4
74.8
69
62.9
56.6
50.2
43.5
36.7
29.8
23.1
16.6
10.9
6.2
2.7
181.6
181.6
181.6
181.6
181.6
181.6
181.6
181.6
181.6
181.6
181.6
181.6
181.6
181.6
181.6
181.6
181.6
181.6
181.6
181.6
181.6
181.6
181.6
181.6
181.6
181.6
181.6
181.6
181.6
181.6
181.6
181.6
181.6
181.6
181.6
181.6
181.6
181.6
181.6
181.6
181.6
181.6
181.6
181.6
181.6
181.6
181.6
181.6
181.6
181.6
181.6
181.6
181.6
181.6
181.6
181.6
181.6
181.6
181.6
181.6
181.5
181.5
181.5
181.5
181.5
181.4
181.4
181.4
181.3
181.3
181.2
181.2
181.1
181.1
181
180.9
180.8
180.7
180.6
180.4
180.3
180.1
180
179.8
179.5
179.3
179
178.8
178.4
178.1
177.7
177.3
176.9
176.4
175.9
175.4
174.8
174.1
173.4
172.7
171.9
171.1
170.1
169.2
168.1
167
165.9
164.6
163.3
161.9
160.4
158.8
157.2
155.4
153.5
151.6
149.5
147.4
145.1
142.7
140.2
137.5
134.7
131.8
128.7
125.5
122.2
118.6
115
111.1
107.1
102.8
98.4
93.8
89
83.9
78.7
73.2
67.5
61.6
55.5
49.2
42.7
36.1
29.5
22.9
16.6
10.9
6.2
2.7
177.4
177.4
177.4
177.4
177.4
177.4
177.4
177.4
177.4
177.4
177.4
177.4
177.4
177.4
177.4
177.4
177.4
177.4
177.4
177.4
177.4
177.4
177.4
177.4
177.4
177.4
177.4
177.4
177.4
177.4
177.4
177.4
177.4
177.4
177.4
177.4
177.4
177.4
177.4
177.4
177.4
177.4
177.4
177.4
177.4
177.4
177.4
177.4
177.4
177.4
177.4
177.4
177.4
177.4
177.4
177.4
177.4
177.4
177.4
177.4
177.3
177.3
177.3
177.3
177.3
177.2
177.2
177.2
177.2
177.1
177.1
177
177
176.9
176.8
176.8
176.7
176.6
176.5
176.3
176.2
176.1
175.9
175.7
175.5
175.3
175
174.8
174.5
174.1
173.8
173.4
173
172.5
172.1
171.5
171
170.3
169.7
169
168.2
167.4
166.5
165.6
164.6
163.5
162.3
161.1
159.8
158.5
157
155.5
153.9
152.1
150.3
148.4
146.4
144.3
142
139.7
137.2
134.6
131.8
129
126
122.8
119.5
116
112.4
108.6
104.7
100.5
96.2
91.7
86.9
82
76.9
71.5
66
60.3
54.3
48.2
41.9
35.5
29.1
22.7
16.5
10.9
6.2
2.7
172.8
172.8
172.8
172.8
172.8
172.8
172.8
172.8
172.8
172.8
172.8
172.8
172.8
172.8
172.8
172.8
172.8
172.8
172.8
172.8
172.8
172.8
172.8
172.8
172.8
172.8
172.8
172.8
172.8
172.8
172.8
172.8
172.8
172.8
172.8
172.8
172.8
172.8
172.8
172.8
172.8
172.8
172.8
172.8
172.8
172.8
172.8
172.8
172.8
172.8
172.8
172.8
172.8
172.8
172.8
172.8
172.8
172.8
172.8
172.8
172.8
172.7
172.7
172.7
172.7
172.7
172.6
172.6
172.6
172.6
172.5
172.5
172.4
172.4
172.3
172.2
172.2
172.1
172
171.9
171.7
171.6
171.4
171.3
171.1
170.9
170.6
170.4
170.1
169.8
169.5
169.1
168.7
168.3
167.8
167.3
166.8
166.2
165.6
164.9
164.2
163.4
162.5
161.6
160.6
159.6
158.5
157.3
156.1
154.7
153.3
151.8
150.2
148.6
146.8
144.9
143
140.9
138.7
136.4
133.9
131.4
128.7
125.9
123
119.9
116.6
113.2
109.7
106
102.1
98
93.8
89.4
84.7
79.9
74.9
69.7
64.4
58.8
53
47.1
41.1
34.9
28.7
22.5
16.4
10.9
6.2
2.7
167.8
167.8
167.8
167.8
167.8
167.8
167.8
167.8
167.8
167.8
167.8
167.8
167.8
167.8
167.8
167.8
167.8
167.8
167.8
167.8
167.8
167.8
167.8
167.8
167.8
167.8
167.8
167.8
167.8
167.8
167.8
167.8
167.8
167.8
167.8
167.8
167.8
167.8
167.8
167.8
167.8
167.8
167.8
167.8
167.8
167.8
167.8
167.8
167.8
167.8
167.8
167.8
167.8
167.8
167.8
167.8
167.8
167.8
167.8
167.8
167.8
167.8
167.7
167.7
167.7
167.7
167.7
167.7
167.6
167.6
167.6
167.5
167.5
167.4
167.4
167.3
167.2
167.2
167.1
167
166.9
166.7
166.6
166.4
166.3
166.1
165.9
165.6
165.4
165.1
164.8
164.5
164.1
163.7
163.3
162.8
162.3
161.7
161.1
160.5
159.7
159
158.2
157.3
156.4
155.4
154.3
153.2
152
150.7
149.3
147.9
146.3
144.7
143
141.2
139.2
137.2
135.1
132.8
130.4
128
125.3
122.6
119.7
116.7
113.5
110.2
106.7
103.1
99.3
95.3
91.2
86.9
82.4
77.7
72.9
67.8
62.6
57.2
51.7
46
40.2
34.2
28.2
22.2
16.3
10.9
6.2
2.7
162.4
162.4
162.4
162.4
162.4
162.4
162.4
162.4
162.4
162.4
162.4
162.4
162.4
162.4
162.4
162.4
162.4
162.4
162.4
162.4
162.4
162.4
162.4
162.4
162.4
162.4
162.4
162.4
162.4
162.4
162.4
162.4
162.4
162.4
162.4
162.4
162.4
162.4
162.4
162.4
162.4
162.4
162.4
162.4
162.4
162.4
162.4
162.4
162.4
162.4
162.4
162.4
162.4
162.4
162.4
162.4
162.4
162.4
162.4
162.4
162.4
162.4
162.3
162.3
162.3
162.3
162.3
162.3
162.2
162.2
162.2
162.2
162.1
162.1
162
162
161.9
161.8
161.8
161.7
161.6
161.5
161.3
161.2
161
160.9
160.7
160.5
160.2
160
159.7
159.4
159
158.7
158.3
157.8
157.3
156.8
156.2
155.6
155
154.3
153.5
152.7
151.8
150.8
149.8
148.7
147.5
146.3
145
143.6
142.1
140.5
138.8
137.1
135.2
133.2
131.2
129
126.7
124.3
121.7
119
116.2
113.3
110.2
107
103.6
100
96.3
92.5
88.5
84.3
79.9
75.4
70.7
65.8
60.8
55.6
50.3
44.8
39.2
33.5
27.7
21.9
16.2
10.8
6.2
2.7
156.6
156.6
156.6
156.6
156.6
156.6
156.6
156.6
156.6
156.6
156.6
156.6
156.6
156.6
156.6
156.6
156.6
156.6
156.6
156.6
156.6
156.6
156.6
156.6
156.6
156.6
156.6
156.6
156.6
156.6
156.6
156.6
156.6
156.6
156.6
156.6
156.6
156.6
156.6
156.6
156.6
156.6
156.6
156.6
156.6
156.6
156.6
156.6
156.6
156.6
156.6
156.6
156.6
156.6
156.6
156.6
156.5
156.5
156.5
156.5
156.5
156.5
156.5
156.5
156.5
156.5
156.5
156.5
156.4
156.4
156.4
156.4
156.3
156.3
156.3
156.2
156.2
156.1
156
155.9
155.9
155.8
155.7
155.5
155.4
155.2
155.1
154.9
154.7
154.4
154.2
153.9
153.6
153.2
152.9
152.5
152
151.5
151
150.4
149.8
149.1
148.4
147.6
146.8
145.9
144.9
143.9
142.7
141.6
140.3
138.9
137.5
136
134.4
132.7
130.9
129
127
124.9
122.6
120.3
117.8
115.2
112.5
109.6
106.6
103.5
100.2
96.8
93.2
89.5
85.6
81.5
77.3
72.9
68.4
63.7
58.9
53.9
48.8
43.5
38.2
32.7
27.2
21.6
16.1
10.8
6.2
2.7
150.3
150.3
150.3
150.3
150.3
150.3
150.3
150.3
150.3
150.3
150.3
150.3
150.3
150.3
150.3
150.3
150.3
150.3
150.3
150.3
150.3
150.3
150.3
150.3
150.3
150.3
150.3
150.3
150.3
150.3
150.3
150.3
150.3
150.3
150.3
150.3
150.3
150.3
150.3
150.3
150.3
150.3
150.3
150.3
150.3
150.3
150.3
150.3
150.3
150.3
150.3
150.3
150.3
150.3
150.3
150.3
150.3
150.3
150.3
150.3
150.2
150.2
150.2
150.2
150.2
150.2
150.2
150.2
150.2
150.2
150.1
150.1
150.1
150.1
150
150
149.9
149.9
149.8
149.8
149.7
149.6
149.5
149.4
149.3
149.2
149
148.8
148.7
148.4
148.2
148
147.7
147.4
147
146.7
146.2
145.8
145.3
144.8
144.2
143.6
142.9
142.2
141.4
140.5
139.6
138.6
137.6
136.4
135.2
134
132.6
131.1
129.6
128
126.2
124.4
122.5
120.4
118.3
116
113.6
111.1
108.5
105.7
102.8
99.8
96.6
93.3
89.9
86.3
82.5
78.6
74.6
70.4
66
61.5
56.9
52.1
47.2
42.2
37.1
31.9
26.6
21.2
15.9
10.8
6.2
2.7
143.5
143.5
143.5
143.5
143.5
143.5
143.5
143.5
143.5
143.5
143.5
143.5
143.5
143.5
143.5
143.5
143.5
143.5
143.5
143.5
143.5
143.5
143.5
143.5
143.5
143.5
143.5
143.5
143.5
143.5
143.5
143.5
143.5
143.5
143.5
143.5
143.5
143.5
143.5
143.5
143.5
143.5
143.5
143.5
143.5
143.5
143.5
143.5
143.5
143.5
143.5
143.5
143.5
143.5
143.5
143.5
143.5
143.5
143.5
143.5
143.5
143.5
143.5
143.5
143.5
143.5
143.5
143.5
143.4
143.4
143.4
143.4
143.4
143.4
143.3
143.3
143.3
143.2
143.2
143.1
143.1
143
142.9
142.8
142.7
142.6
142.5
142.3
142.2
142
141.8
141.6
141.3
141
140.7
140.4
140
139.6
139.2
138.7
138.2
137.6
137
136.3
135.6
134.8
133.9
133
132
131
129.8
128.6
127.3
125.9
124.5
122.9
121.3
119.5
117.7
115.7
113.7
111.5
109.2
106.8
104.3
101.6
98.8
95.9
92.9
89.7
86.4
82.9
79.3
75.6
71.7
67.7
63.5
59.2
54.8
50.3
45.6
40.8
36
31
25.9
20.8
15.7
10.7
6.2
2.7
136.3
136.3
136.3
136.3
136.3
136.3
136.3
136.3
136.3
136.3
136.3
136.3
136.3
136.3
136.3
136.3
136.3
136.3
136.3
136.3
136.3
136.3
136.3
136.3
136.3
136.3
136.3
136.3
136.3
136.3
136.3
136.3
136.3
136.3
136.3
136.3
136.3
136.3
136.3
136.3
136.3
136.3
136.3
136.3
136.3
136.3
136.3
136.3
136.3
136.3
136.3
136.3
136.3
136.3
136.3
136.3
136.3
136.3
136.3
136.3
136.3
136.3
136.3
136.3
136.3
136.3
136.3
136.3
136.2
136.2
136.2
136.2
136.2
136.2
136.2
136.1
136.1
136.1
136
136
135.9
135.9
135.8
135.8
135.7
135.6
135.5
135.3
135.2
135.1
134.9
134.7
134.5
134.2
134
133.7
133.4
133
132.6
132.2
131.7
131.2
130.6
130
129.3
128.6
127.8
127
126
125.1
124
122.9
121.7
120.4
119
117.5
116
114.3
112.5
110.7
108.7
106.7
104.5
102.2
99.8
97.2
94.6
91.8
88.9
85.9
82.7
79.4
76
72.4
68.7
64.9
60.9
56.9
52.7
48.4
43.9
39.4
34.8
30.1
25.3
20.4
15.5
10.6
6.2
2.7
128.6
128.6
128.6
128.6
128.6
128.6
128.6
128.6
128.6
128.6
128.6
128.6
128.6
128.6
128.6
128.6
128.6
128.6
128.6
128.6
128.6
128.6
128.6
128.6
128.6
128.6
128.6
128.6
128.6
128.6
128.6
128.6
128.6
128.6
128.6
128.6
128.6
128.6
128.6
128.6
128.6
128.6
128.6
128.6
128.6
128.6
128.6
128.6
128.6
128.6
128.6
128.6
128.6
128.6
128.6
128.6
128.6
128.6
128.6
128.6
128.6
128.6
128.6
128.6
128.6
128.6
128.6
128.6
128.5
128.5
128.5
128.5
128.5
128.5
128.5
128.5
128.5
128.4
128.4
128.4
128.3
128.3
128.2
128.2
128.1
128
128
127.9
127.7
127.6
127.5
127.3
127.1
126.9
126.7
126.5
126.2
125.9
125.5
125.2
124.7
124.3
123.8
123.2
122.6
122
121.3
120.5
119.6
118.7
117.8
116.7
115.6
114.4
113.1
111.7
110.3
108.7
107.1
105.3
103.5
101.6
99.5
97.3
95
92.6
90.1
87.5
84.7
81.9
78.9
75.8
72.5
69.1
65.6
62
58.3
54.4
50.5
46.4
42.2
37.9
33.6
29.1
24.5
19.9
15.2
10.5
6.2
2.7
120.4
120.4
120.4
120.4
120.4
120.4
120.4
120.4
120.4
120.4
120.4
120.4
120.4
120.4
120.4
120.4
120.4
120.4
120.4
120.4
120.4
120.4
120.4
120.4
120.4
120.4
120.4
120.4
120.4
120.4
120.4
120.4
120.4
120.4
120.4
120.4
120.4
120.4
120.4
120.4
120.4
120.4
120.4
120.4
120.4
120.4
120.4
120.4
120.4
120.4
120.4
120.4
120.4
120.4
120.4
120.4
120.4
120.4
120.4
120.4
120.4
120.4
120.4
120.4
120.4
120.4
120.4
120.4
120.4
120.4
120.4
120.4
120.4
120.3
120.3
120.3
120.3
120.3
120.3
120.2
120.2
120.2
120.2
120.1
120.1
120
119.9
119.9
119.8
119.7
119.6
119.4
119.3
119.1
119
118.8
118.5
118.3
118
117.7
117.3
116.9
116.5
116
115.5
114.9
114.2
113.6
112.8
112
111.1
110.2
109.2
108.1
106.9
105.6
104.3
102.8
101.3
99.7
98
96.2
94.2
92.2
90.1
87.8
85.5
83
80.4
77.7
74.9
72
68.9
65.7
62.4
59.1
55.5
51.9
48.2
44.4
40.4
36.4
32.3
28
23.7
19.3
14.9
10.4
6.2
2.7
111.7
111.7
111.7
111.7
111.7
111.7
111.7
111.7
111.7
111.7
111.7
111.7
111.7
111.7
111.7
111.7
111.7
111.7
111.7
111.7
111.7
111.7
111.7
111.7
111.7
111.7
111.7
111.7
111.7
111.7
111.7
111.7
111.7
111.7
111.7
111.7
111.7
111.7
111.7
111.7
111.7
111.7
111.7
111.7
111.7
111.7
111.7
111.7
111.7
111.7
111.7
111.7
111.7
111.7
111.7
111.7
111.7
111.7
111.7
111.7
111.7
111.7
111.7
111.7
111.7
111.7
111.7
111.7
111.7
111.7
111.7
111.7
111.7
111.7
111.7
111.7
111.7
111.7
111.7
111.7
111.6
111.6
111.6
111.6
111.5
111.5
111.4
111.4
111.3
111.3
111.2
111.1
111
110.8
110.7
110.5
110.4
110.2
109.9
109.7
109.4
109
108.7
108.3
107.8
107.3
106.8
106.2
105.5
104.8
104.1
103.2
102.3
101.3
100.3
99.1
97.9
96.6
95.2
93.7
92.2
90.5
88.7
86.8
84.9
82.8
80.6
78.3
75.9
73.4
70.8
68
65.2
62.2
59.2
56
52.7
49.3
45.9
42.3
38.6
34.8
30.9
27
22.9
18.7
14.5
10.2
6.2
2.7
102.7
102.7
102.7
102.7
102.7
102.7
102.7
102.7
102.7
102.7
102.7
102.7
102.7
102.7
102.7
102.7
102.7
102.7
102.7
102.7
102.7
102.7
102.7
102.7
102.7
102.7
102.7
102.7
102.7
102.7
102.7
102.7
102.7
102.7
102.7
102.7
102.7
102.7
102.7
102.7
102.7
102.7
102.7
102.7
102.7
102.7
102.7
102.7
102.7
102.7
102.7
102.7
102.7
102.7
102.7
102.7
102.7
102.7
102.7
102.7
102.7
102.7
102.7
102.7
102.7
102.7
102.7
102.7
102.7
102.7
102.7
102.7
102.7
102.7
102.7
102.7
102.7
102.7
102.7
102.6
102.6
102.6
102.6
102.6
102.6
102.5
102.5
102.5
102.4
102.4
102.3
102.3
102.2
102.1
102
101.9
101.7
101.6
101.4
101.2
101
100.7
100.4
100.1
99.7
99.3
98.9
98.4
97.8
97.2
96.6
95.9
95.1
94.2
93.3
92.3
91.2
90.1
88.8
87.5
86.1
84.6
83
81.2
79.5
77.6
75.6
73.5
71.2
68.9
66.5
64
61.4
58.6
55.8
52.9
49.8
46.7
43.5
40.1
36.7
33.2
29.5
25.8
22
18.1
14.1
10.1
6.1
2.7
93.3
93.3
93.3
93.3
93.3
93.3
93.3
93.3
93.3
93.3
93.3
93.3
93.3
93.3
93.3
93.3
93.3
93.3
93.3
93.3
93.3
93.3
93.3
93.3
93.3
93.3
93.3
93.3
93.3
93.3
93.3
93.3
93.3
93.3
93.3
93.3
93.3
93.3
93.3
93.3
93.3
93.3
93.3
93.3
93.3
93.3
93.3
93.3
93.3
93.3
93.3
93.3
93.3
93.3
93.3
93.3
93.3
93.3
93.3
93.3
93.3
93.3
93.3
93.3
93.3
93.3
93.3
93.3
93.3
93.3
93.3
93.3
93.3
93.3
93.3
93.3
93.3
93.3
93.3
93.3
93.3
93.3
93.3
93.3
93.3
93.3
93.2
93.2
93.2
93.2
93.1
93.1
93
93
92.9
92.8
92.7
92.6
92.5
92.4
92.2
92
91.8
91.5
91.3
90.9
90.6
90.2
89.8
89.3
88.7
88.1
87.5
86.8
86
85.1
84.2
83.2
82.1
81
79.7
78.4
77
75.5
73.8
72.1
70.3
68.4
66.5
64.4
62.2
59.9
57.5
55
52.4
49.7
46.9
44
41
37.9
34.7
31.5
28.1
24.6
21
17.4
13.6
9.8
6.1
2.7
83.8
83.8
83.8
83.8
83.8
83.8
83.8
83.8
83.8
83.8
83.8
83.8
83.8
83.8
83.8
83.8
83.8
83.8
83.8
83.8
83.8
83.8
83.8
83.8
83.8
83.8
83.8
83.8
83.8
83.8
83.8
83.8
83.8
83.8
83.8
83.8
83.8
83.8
83.8
83.8
83.8
83.8
83.8
83.8
83.8
83.8
83.8
83.8
83.8
83.8
83.8
83.8
83.8
83.8
83.8
83.8
83.8
83.8
83.8
83.8
83.8
83.8
83.8
83.8
83.8
83.8
83.8
83.8
83.8
83.8
83.8
83.8
83.8
83.8
83.8
83.8
83.8
83.8
83.8
83.8
83.8
83.8
83.8
83.8
83.8
83.8
83.8
83.7
83.7
83.7
83.7
83.7
83.6
83.6
83.6
83.5
83.5
83.4
83.3
83.2
83.1
83
82.8
82.7
82.5
82.3
82
81.7
81.4
81
80.6
80.1
79.6
79
78.4
77.7
76.9
76.1
75.2
74.2
73.2
72
70.8
69.5
68.1
66.6
65
63.3
61.5
59.7
57.7
55.6
53.5
51.2
48.9
46.4
43.9
41.2
38.5
35.7
32.7
29.7
26.6
23.4
20
16.6
13.1
9.6
6
2.7
74.3
74.3
74.3
74.3
74.3
74.3
74.3
74.3
74.3
74.3
74.3
74.3
74.3
74.3
74.3
74.3
74.3
74.3
74.3
74.3
74.3
74.3
74.3
74.3
74.3
74.3
74.3
74.3
74.3
74.3
74.3
74.3
74.3
74.3
74.3
74.3
74.3
74.3
74.3
74.3
74.3
74.3
74.3
74.3
74.3
74.3
74.3
74.3
74.3
74.3
74.3
74.3
74.3
74.3
74.3
74.3
74.3
74.3
74.3
74.3
74.3
74.3
74.3
74.3
74.3
74.3
74.3
74.3
74.3
74.3
74.3
74.3
74.3
74.3
74.3
74.3
74.3
74.3
74.3
74.3
74.3
74.3
74.3
74.3
74.3
74.3
74.3
74.3
74.3
74.3
74.2
74.2
74.2
74.2
74.2
74.2
74.1
74.1
74
74
73.9
73.9
73.8
73.7
73.5
73.4
73.2
73
72.8
72.5
72.2
71.9
71.5
71.1
70.6
70.1
69.5
68.8
68.1
67.3
66.4
65.5
64.5
63.4
62.2
60.9
59.5
58.1
56.5
54.9
53.2
51.3
49.4
47.4
45.3
43.1
40.8
38.4
35.9
33.3
30.7
27.9
25
22.1
19
15.8
12.6
9.3
5.9
2.7
65
65
65
65
65
65
65
65
65
65
65
65
65
65
65
65
65
65
65
65
65
65
65
65
65
65
65
65
65
65
65
65
65
65
65
65
65
65
65
65
65
65
65
65
65
65
65
65
65
65
65
65
65
65
65
65
65
65
65
65
65
65
65
65
65
65
65
65
65
65
65
65
65
65
65
65
65
65
65
65
65
65
65
65
65
65
65
65
65
65
65
65
65
65
65
65
64.9
64.9
64.9
64.9
64.9
64.8
64.8
64.7
64.6
64.6
64.5
64.3
64.2
64
63.8
63.6
63.4
63.1
62.7
62.3
61.9
61.4
60.9
60.3
59.6
58.8
58
57.1
56.2
55.1
54
52.8
51.4
50.1
48.6
47
45.3
43.5
41.7
39.7
37.7
35.6
33.3
31
28.6
26
23.4
20.7
17.9
15
12
8.9
5.7
2.7
56.1
56.1
56.1
56.1
56.1
56.1
56.1
56.1
56.1
56.1
56.1
56.1
56.1
56.1
56.1
56.1
56.1
56.1
56.1
56.1
56.1
56.1
56.1
56.1
56.1
56.1
56.1
56.1
56.1
56.1
56.1
56.1
56.1
56.1
56.1
56.1
56.1
56.1
56.1
56.1
56.1
56.1
56.1
56.1
56.1
56.1
56.1
56.1
56.1
56.1
56.1
56.1
56.1
56.1
56.1
56.1
56.1
56.1
56.1
56.1
56.1
56.1
56.1
56.1
56.1
56.1
56.1
56.1
56.1
56.1
56.1
56.1
56.1
56.1
56.1
56.1
56.1
56.1
56.1
56.1
56.1
56.1
56.1
56.1
56.1
56.1
56.1
56.1
56.1
56.1
56.1
56.1
56.1
56.1
56.1
56.1
56.1
56.1
56.1
56.1
56.1
56.1
56.1
56
56
56
55.9
55.8
55.8
55.7
55.6
55.4
55.3
55.1
54.9
54.6
54.4
54
53.6
53.2
52.7
52.2
51.5
50.9
50.1
49.3
48.4
47.4
46.3
45.1
43.9
42.6
41.1
39.6
38
36.3
34.5
32.6
30.6
28.6
26.4
24.1
21.8
19.3
16.7
14.1
11.3
8.5
5.6
2.7
47.8
47.8
47.8
47.8
47.8
47.8
47.8
47.8
47.8
47.8
47.8
47.8
47.8
47.8
47.8
47.8
47.8
47.8
47.8
47.8
47.8
47.8
47.8
47.8
47.8
47.8
47.8
47.8
47.8
47.8
47.8
47.8
47.8
47.8
47.8
47.8
47.8
47.8
47.8
47.8
47.8
47.8
47.8
47.8
47.8
47.8
47.8
47.8
47.8
47.8
47.8
47.8
47.8
47.8
47.8
47.8
47.8
47.8
47.8
47.8
47.8
47.8
47.8
47.8
47.8
47.8
47.8
47.8
47.8
47.8
47.8
47.8
47.8
47.8
47.8
47.8
47.8
47.8
47.8
47.8
47.8
47.8
47.8
47.8
47.8
47.8
47.8
47.8
47.8
47.8
47.8
47.8
47.8
47.8
47.8
47.8
47.8
47.8
47.8
47.8
47.8
47.8
47.8
47.8
47.8
47.8
47.8
47.7
47.7
47.7
47.6
47.5
47.5
47.4
47.2
47.1
46.9
46.7
46.5
46.2
45.9
45.5
45.1
44.6
44
43.4
42.7
42
41.1
40.2
39.2
38.1
36.9
35.6
34.3
32.8
31.3
29.6
27.9
26.1
24.2
22.1
20
17.8
15.5
13.1
10.6
8
5.4
2.7
40.1
40.1
40.1
40.1
40.1
40.1
40.1
40.2
40.2
40.2
40.2
40.2
40.2
40.2
40.2
40.2
40.2
40.2
40.2
40.2
40.2
40.2
40.2
40.2
40.2
40.2
40.2
40.2
40.2
40.2
40.2
40.2
40.2
40.2
40.2
40.2
40.2
40.2
40.2
40.2
40.2
40.2
40.2
40.2
40.2
40.2
40.2
40.2
40.2
40.2
40.2
40.2
40.2
40.2
40.2
40.2
40.2
40.2
40.2
40.2
40.2
40.2
40.2
40.2
40.2
40.2
40.2
40.2
40.2
40.2
40.2
40.2
40.2
40.2
40.2
40.2
40.2
40.2
40.2
40.2
40.2
40.2
40.2
40.2
40.2
40.2
40.2
40.2
40.2
40.2
40.2
40.2
40.2
40.2
40.2
40.2
40.2
40.2
40.1
40.1
40.1
40.1
40.1
40.1
40.1
40.1
40.1
40.1
40.1
40.1
40.1
40
40
40
39.9
39.8
39.8
39.7
39.5
39.4
39.2
39
38.7
38.4
38
37.6
37.1
36.5
35.9
35.2
34.4
33.6
32.6
31.6
30.5
29.3
28
26.6
25.1
23.6
21.9
20.1
18.3
16.3
14.3
12.1
9.9
7.5
5.1
2.6
33.1
33.1
33.1
33.1
33.1
33.1
33.1
33.1
33.1
33.1
33.1
33.1
33.1
33.1
33.1
33.1
33.1
33.1
33.1
33.1
33.1
33.1
33.1
33.1
33.1
33.1
33.1
33.1
33.1
33.1
33.1
33.1
33.1
33.1
33.1
33.1
33.1
33.1
33.1
33.1
33.1
33.1
33.1
33.1
33.1
33.1
33.1
33.1
33.1
33.1
33.1
33.1
33.1
33.1
33.1
33.1
33.1
33.1
33.1
33.1
33.1
33.1
33.1
33.1
33.1
33.1
33.1
33.1
33.1
33.1
33.1
33.1
33.1
33.1
33.1
33.1
33.1
33.1
33.1
33.1
33.1
33.1
33.1
33.1
33.1
33.1
33.1
33.1
33.1
33.1
33.1
33.1
33.1
33.1
33.1
33.1
33.1
33.1
33.1
33.1
33.1
33.1
33.1
33.1
33.1
33.1
33.1
33.1
33.1
33.1
33.1
33.1
33.1
33.1
33
33
33
32.9
32.9
32.8
32.7
32.6
32.5
32.3
32.1
31.8
31.5
31.1
30.7
30.2
29.7
29
28.3
27.5
26.7
25.7
24.7
23.5
22.3
21
19.6
18
16.4
14.7
12.9
11.1
9.1
7
4.8
2.5
26.7
26.7
26.7
26.7
26.7
26.7
26.7
26.7
26.7
26.7
26.7
26.7
26.7
26.7
26.7
26.7
26.7
26.7
26.7
26.7
26.7
26.7
26.7
26.7
26.7
26.7
26.7
26.7
26.7
26.7
26.7
26.7
26.7
26.7
26.7
26.7
26.7
26.7
26.7
26.7
26.7
26.7
26.7
26.7
26.7
26.7
26.7
26.7
26.7
26.7
26.7
26.7
26.7
26.7
26.7
26.7
26.7
26.7
26.7
26.7
26.7
26.7
26.7
26.7
26.7
26.7
26.7
26.7
26.7
26.7
26.7
26.7
26.7
26.7
26.7
26.7
26.7
26.7
26.7
26.7
26.7
26.7
26.7
26.7
26.7
26.7
26.7
26.7
26.7
26.7
26.7
26.7
26.7
26.7
26.7
26.7
26.7
26.7
26.7
26.7
26.7
26.7
26.7
26.7
26.7
26.7
26.7
26.7
26.7
26.7
26.7
26.7
26.7
26.7
26.7
26.7
26.7
26.7
26.7
26.6
26.6
26.6
26.5
26.4
26.3
26.2
26
25.8
25.6
25.3
24.9
24.5
24
23.4
22.8
22.1
21.3
20.4
19.4
18.3
17.2
15.9
14.6
13.1
11.6
9.9
8.2
6.4
4.5
2.4
21
21
21
21
21
21
21
21
21
21
21
21
21
21
21
21
21
21
21
21
21
21
21
21
21
21
21
21
21
21
21
21
21
21
21
21
21
21
21
21
21
21
21
21
21
21
21
21
21
21
21
21
21
21
21
21
21
21
21
21
21
21
21
21
21
21
21
21
21
21
21
21
21
21
21
21
21
21
21
21
21
21
21
21
21
21
21
21
21
21
21
21
21
21
21
21
21
21
21
21
21
21
21
21
21
21
21
21
21
21
21
21
21
21
21
21
21
21
21
21
21
21
21
20.9
20.9
20.8
20.8
20.7
20.6
20.4
20.2
20
19.7
19.3
18.9
18.4
17.9
17.2
16.5
15.7
14.7
13.7
12.6
11.4
10.2
8.8
7.3
5.7
4
2.3
16
16
16
16
16
16
16
16
16
16
16
16
16
16
16
16
16
16
16
16
16
16
16
16
16
16
16
16
16
16
16
16
16
16
16
16
16
16
16
16
16
16
16
16
16
16
16
16
16
16
16
16
16
16
16
16
16
16
16
16
16
16
16
16
16
16
16
16
16
16
16
16
16
16
16
16
16
16
16
16
16
16
16
16
16
16
16
16
16
16
16
16
16
16
16
16
16
16
16
16
16
16
16
16
16
16
16
16
16
16
16
16
16
16
16
16
16
16
16
16
16
16
15.9
15.9
15.9
15.9
15.9
15.9
15.8
15.8
15.7
15.6
15.5
15.3
15.1
14.8
14.4
14
13.5
12.9
12.2
11.5
10.6
9.7
8.7
7.5
6.3
5
3.6
2.1
11.6
11.6
11.6
11.6
11.6
11.6
11.6
11.6
11.6
11.6
11.6
11.6
11.6
11.6
11.6
11.6
11.6
11.6
11.6
11.6
11.6
11.6
11.6
11.6
11.6
11.6
11.6
11.6
11.6
11.6
11.6
11.6
11.6
11.6
11.6
11.6
11.6
11.6
11.6
11.6
11.6
11.6
11.6
11.6
11.6
11.6
11.6
11.6
11.6
11.6
11.6
11.6
11.6
11.6
11.6
11.6
11.6
11.6
11.6
11.6
11.6
11.6
11.6
11.6
11.6
11.6
11.6
11.6
11.6
11.6
11.6
11.6
11.6
11.6
11.6
11.6
11.6
11.6
11.6
11.6
11.6
11.6
11.6
11.6