/*--------------------------------*- C++ -*----------------------------------*\
| =========                 |                                                 |
| \\      /  F ield         | foam-extend: Open Source CFD                    |
|  \\    /   O peration     | Version:     4.0                                |
|   \\  /    A nd           | Web:         http://www.foam-extend.org         |
|    \\/     M anipulation  |                                                 |
\*---------------------------------------------------------------------------*/
FoamFile
{
    version     2.0;
    format      ascii;
    class       volScalarField;
    location    "114";
    object      gradTx;
}
// * * * * * * * * * * * * * * * * * * * * * * * * * * * * * * * * * * * * * //

dimensions      [0 -1 0 1 0 0 0];

internalField   nonuniform List<scalar> 
8000
(
0.00638219
0.823195
1.56355
1.44691
1.36443
1.29708
1.23685
1.18114
1.12878
1.0791
1.0317
0.986293
0.942678
0.900701
0.860246
0.821216
0.783534
0.747138
0.711975
0.677999
0.645175
0.613471
0.582859
0.553315
0.52482
0.497353
0.470897
0.445436
0.420954
0.397435
0.374863
0.353223
0.332498
0.31267
0.293722
0.275637
0.258393
0.241973
0.226355
0.211517
0.19744
0.184098
0.171471
0.159535
0.148266
0.13764
0.127634
0.118222
0.109382
0.101089
0.0933192
0.0860489
0.0792547
0.0729138
0.0670034
0.0615016
0.0563866
0.0516374
0.0472336
0.0431554
0.0393835
0.0358995
0.0326856
0.0297247
0.0270004
0.0244971
0.0221997
0.0200942
0.018167
0.0164052
0.0147968
0.0133303
0.0119949
0.0107806
0.00967762
0.0086772
0.00777095
0.00695105
0.00621025
0.00554178
0.00493935
0.00439715
0.00390979
0.00347227
0.00308002
0.00272881
0.00241474
0.00213425
0.00188407
0.00166122
0.00146296
0.00128682
0.00113051
0.000991999
0.000869405
0.000761042
0.000665381
0.000581041
0.000506779
0.000441473
0.000384118
0.000333809
0.000289739
0.000251182
0.000217492
0.000188093
0.000162471
0.000140169
0.000120781
0.000103949
8.93545e-05
7.67158e-05
6.57848e-05
5.63428e-05
4.81974e-05
4.11795e-05
3.51409e-05
2.99512e-05
2.54969e-05
2.16789e-05
1.84103e-05
1.56155e-05
1.32289e-05
1.11934e-05
9.45969e-06
7.98473e-06
6.73136e-06
5.66786e-06
4.76671e-06
4.0041e-06
3.35933e-06
2.81498e-06
2.35595e-06
1.96947e-06
1.64447e-06
1.37138e-06
1.14211e-06
9.50054e-07
7.89356e-07
6.5496e-07
5.42757e-07
4.49343e-07
3.71581e-07
3.06866e-07
2.53028e-07
2.08222e-07
1.71446e-07
1.41117e-07
1.15656e-07
9.47252e-08
7.7729e-08
6.36258e-08
5.20073e-08
4.23664e-08
3.43575e-08
2.80778e-08
2.29872e-08
1.88305e-08
1.53493e-08
1.2546e-08
1.02678e-08
8.31275e-09
6.52221e-09
5.07545e-09
4.03591e-09
3.31499e-09
2.81537e-09
2.29331e-09
1.76217e-09
1.4047e-09
9.723e-10
7.16551e-10
7.30213e-10
6.04485e-10
5.15932e-10
4.66764e-10
2.23009e-10
5.08819e-11
2.06581e-10
1.88485e-10
1.03291e-10
1.42155e-10
6.03198e-12
-9.56378e-11
-5.98504e-12
5.40531e-11
3.76249e-11
6.00851e-11
1.64429e-12
6.879e-11
1.0167e-10
2.39461e-10
2.39367e-10
1.96185e-10
1.82571e-10
9.45153e-11
6.44962e-11
7.32246e-11
8.68625e-11
1.79804e-10
2.27374e-10
3.02196e-10
9.12502e-11
1.15308e-10
2.79876e-10
2.29018e-10
5.24323e-11
-2.25729e-10
-1.31238e-10
-4.48499e-11
-3.44537e-11
1.96698e-11
-1.2568e-10
-1.73297e-10
-1.9195e-11
1.34884e-10
-1.00072e-10
-2.10899e-10
-1.02792e-10
-1.79353e-10
-2.0334e-10
-3.12568e-10
-3.21391e-10
-4.79951e-10
-7.76162e-10
-1.02316e-09
-8.77831e-10
-1.04402e-09
-1.25935e-09
-1.32819e-09
-1.70201e-09
-2.27484e-09
-2.89744e-09
-3.68562e-09
-4.9273e-09
-6.14949e-09
-7.4417e-09
-9.42726e-09
-1.16469e-08
-1.42809e-08
-1.7828e-08
-2.20087e-08
-2.70903e-08
-3.33655e-08
-4.09524e-08
-5.04081e-08
-6.18965e-08
-7.58247e-08
-9.27143e-08
-1.13359e-07
-1.38596e-07
-1.68786e-07
-2.05553e-07
-2.49852e-07
-3.03707e-07
-3.685e-07
-4.46533e-07
-5.40765e-07
-6.54061e-07
-7.89873e-07
-9.5285e-07
-1.14781e-06
-1.3814e-06
-1.6605e-06
-1.99329e-06
-2.39024e-06
-2.86232e-06
-3.4238e-06
-4.09021e-06
-4.88033e-06
-5.81621e-06
-6.92301e-06
-8.23071e-06
-9.77357e-06
-1.15916e-05
-1.37311e-05
-1.62457e-05
-1.91973e-05
-2.26579e-05
-2.67098e-05
-3.14482e-05
-3.69822e-05
-4.34374e-05
-5.09573e-05
-5.97064e-05
-6.98731e-05
-8.16717e-05
-9.53466e-05
-0.000111176
-0.000129477
-0.000150608
-0.000174974
-0.000203037
-0.000235315
-0.000272394
-0.000314934
-0.000363676
-0.000419453
-0.0004832
-0.000555962
-0.000638906
-0.000733338
-0.000840709
-0.000962638
-0.00110092
-0.00125754
-0.00143472
-0.00163488
-0.00186072
-0.00211521
-0.00240161
-0.00272351
-0.00308484
-0.00348991
-0.00394342
-0.00445053
-0.00501682
-0.0056484
-0.00635187
-0.0071344
-0.00800376
-0.00896834
-0.0100372
-0.01122
-0.0125273
-0.0139702
-0.0155609
-0.017312
-0.0192375
-0.0213517
-0.0236703
-0.0262096
-0.0289871
-0.0320211
-0.0353311
-0.0389375
-0.0428615
-0.0471258
-0.0517537
-0.0567696
-0.0621991
-0.0680685
-0.0744051
-0.0812372
-0.088594
-0.0965051
-0.105001
-0.114114
-0.123875
-0.134316
-0.145471
-0.157371
-0.170051
-0.183543
-0.19788
-0.213094
-0.229218
-0.246284
-0.26432
-0.283358
-0.303424
-0.324545
-0.346746
-0.370049
-0.394475
-0.420039
-0.446757
-0.47464
-0.503693
-0.53392
-0.565318
-0.597879
-0.631588
-0.666425
-0.702361
-0.739358
-0.777368
-0.816329
-0.856168
-0.896793
-0.938092
-0.979929
-1.02213
-1.0645
-1.10677
-1.14862
-1.18963
-1.22926
-1.26679
-1.30122
-1.33115
-1.35454
-1.36824
-1.36714
-1.34245
-1.27834
-1.14623
-0.901621
-0.516682
-0.144357
0.0481127
0.829768
1.51326
1.42376
1.35126
1.28817
1.2301
1.17563
1.12407
1.07496
1.02799
0.982921
0.939592
0.897862
0.857623
0.818786
0.781279
0.745042
0.710023
0.67618
0.643478
0.611886
0.581378
0.551931
0.523524
0.49614
0.469762
0.444374
0.419959
0.396504
0.373992
0.352408
0.331735
0.311957
0.293056
0.275014
0.257812
0.24143
0.225849
0.211046
0.197001
0.18369
0.171092
0.159183
0.147939
0.137337
0.127353
0.117963
0.109142
0.100868
0.0931151
0.0858608
0.0790817
0.0727547
0.0668573
0.0613675
0.0562638
0.051525
0.0471308
0.0430615
0.0392979
0.0358215
0.0326146
0.0296601
0.0269418
0.0244439
0.0221515
0.0200506
0.0181275
0.0163696
0.0147647
0.0133014
0.0119689
0.0107572
0.00965664
0.00865839
0.0077541
0.00693599
0.00619679
0.00552977
0.00492865
0.00438763
0.00390132
0.00346475
0.00307335
0.0027229
0.00240951
0.00212963
0.00187999
0.00165762
0.0014598
0.00128403
0.00112807
0.000989852
0.000867523
0.000759395
0.000663941
0.000579784
0.000505682
0.000440518
0.000383286
0.000333087
0.000289111
0.000250638
0.000217022
0.000187686
0.000162119
0.000139865
0.00012052
0.000103724
8.91612e-05
7.65497e-05
6.56424e-05
5.62209e-05
4.8093e-05
4.10904e-05
3.50649e-05
2.98864e-05
2.54417e-05
2.16319e-05
1.83704e-05
1.55817e-05
1.32002e-05
1.11692e-05
9.43918e-06
7.96745e-06
6.71689e-06
5.65569e-06
4.75642e-06
3.99535e-06
3.35202e-06
2.80882e-06
2.35091e-06
1.96523e-06
1.6408e-06
1.36835e-06
1.13963e-06
9.47965e-07
7.87701e-07
6.53592e-07
5.41582e-07
4.4829e-07
3.70727e-07
3.06147e-07
2.52464e-07
2.07945e-07
1.71105e-07
1.40641e-07
1.15358e-07
9.45305e-08
7.75061e-08
6.33864e-08
5.17782e-08
4.2281e-08
3.44247e-08
2.81032e-08
2.29707e-08
1.8655e-08
1.52744e-08
1.24427e-08
1.01062e-08
8.22462e-09
6.53101e-09
5.06477e-09
4.00162e-09
3.33133e-09
2.73881e-09
2.19418e-09
1.75616e-09
1.34209e-09
8.46526e-10
7.26854e-10
7.71868e-10
6.03122e-10
5.29686e-10
4.76762e-10
2.21248e-10
5.72653e-11
1.48234e-10
1.53516e-10
4.5014e-11
1.30701e-10
1.19531e-10
-4.5014e-11
-7.32951e-11
4.5014e-11
-1.79551e-11
-8.55464e-11
-5.07178e-11
4.48164e-12
6.71694e-11
2.2167e-10
3.06654e-10
2.10922e-10
1.07702e-10
7.30138e-11
1.64686e-10
1.35842e-10
5.84438e-12
1.08886e-11
2.04937e-10
2.15404e-10
3.42661e-11
-1.07479e-11
1.75293e-10
1.80997e-10
-3.00657e-11
-7.89988e-11
-1.42109e-10
-1.76656e-10
-4.0673e-11
-2.97844e-11
-6.70288e-11
-1.7053e-10
-1.48094e-10
1.61704e-11
-9.27535e-11
-1.80716e-10
-2.68047e-10
-2.4561e-10
-2.04515e-10
-3.28809e-10
-5.01265e-10
-5.52264e-10
-7.22513e-10
-9.82649e-10
-9.72323e-10
-1.00687e-09
-1.31951e-09
-1.45073e-09
-1.79627e-09
-2.359e-09
-2.86489e-09
-3.76378e-09
-4.88391e-09
-6.09285e-09
-7.66518e-09
-9.36271e-09
-1.16197e-08
-1.43365e-08
-1.77294e-08
-2.2055e-08
-2.71038e-08
-3.33506e-08
-4.10125e-08
-5.03244e-08
-6.16856e-08
-7.56242e-08
-9.26321e-08
-1.13154e-07
-1.38077e-07
-1.68496e-07
-2.05136e-07
-2.49469e-07
-3.03016e-07
-3.67623e-07
-4.45629e-07
-5.39546e-07
-6.52558e-07
-7.88381e-07
-9.50922e-07
-1.14546e-06
-1.37844e-06
-1.65695e-06
-1.98925e-06
-2.38513e-06
-2.85625e-06
-3.4164e-06
-4.08136e-06
-4.86975e-06
-5.80357e-06
-6.90819e-06
-8.21303e-06
-9.75252e-06
-1.15667e-05
-1.37014e-05
-1.62105e-05
-1.91559e-05
-2.2609e-05
-2.66521e-05
-3.13802e-05
-3.69023e-05
-4.33435e-05
-5.08471e-05
-5.95774e-05
-6.9722e-05
-8.14951e-05
-9.51406e-05
-0.000110936
-0.000129197
-0.000150282
-0.000174596
-0.000202598
-0.000234806
-0.000271805
-0.000314252
-0.000362889
-0.000418546
-0.000482155
-0.00055476
-0.000637525
-0.000731752
-0.000838892
-0.000960556
-0.00109854
-0.00125482
-0.00143161
-0.00163134
-0.0018567
-0.00211064
-0.00239642
-0.00271762
-0.00307817
-0.00348236
-0.0039349
-0.00444091
-0.00500598
-0.00563619
-0.00633814
-0.00711898
-0.00798647
-0.00894896
-0.0100155
-0.0111958
-0.0125002
-0.01394
-0.0155273
-0.0172747
-0.0191959
-0.0213056
-0.0236191
-0.026153
-0.0289245
-0.031952
-0.0352549
-0.0388534
-0.0427691
-0.0470242
-0.0516421
-0.0566473
-0.0620651
-0.0679219
-0.0742449
-0.0810624
-0.0884034
-0.0962977
-0.104776
-0.113869
-0.123609
-0.134028
-0.145159
-0.157034
-0.169687
-0.183151
-0.197458
-0.212641
-0.228731
-0.245761
-0.263761
-0.282759
-0.302785
-0.323863
-0.34602
-0.369278
-0.393655
-0.419171
-0.445839
-0.473671
-0.502672
-0.532846
-0.564192
-0.596701
-0.63036
-0.665149
-0.701039
-0.737996
-0.775971
-0.814906
-0.85473
-0.895355
-0.936674
-0.978556
-1.02084
-1.06334
-1.1058
-1.14793
-1.18935
-1.22956
-1.26794
-1.30363
-1.33549
-1.36192
-1.38063
-1.38824
-1.37932
-1.3434
-1.25294
-1.0161
-0.348873
0.0727486
0.0165837
0.768056
1.46432
1.39263
1.32998
1.27235
1.2175
1.16508
1.11491
1.06683
1.02065
0.976242
0.933467
0.892218
0.852406
0.813951
0.77679
0.740867
0.706135
0.672556
0.640096
0.608727
0.578426
0.54917
0.520941
0.493723
0.467499
0.442254
0.417975
0.394646
0.372253
0.35078
0.330212
0.310532
0.291724
0.27377
0.25665
0.240346
0.224838
0.210104
0.196124
0.182875
0.170334
0.158479
0.147286
0.136732
0.126792
0.117444
0.108663
0.100425
0.0927068
0.0854847
0.0787355
0.0724364
0.066565
0.0610994
0.056018
0.0513001
0.0469252
0.0428737
0.0391265
0.0356653
0.0324724
0.0295309
0.0268244
0.0243374
0.0220551
0.0199633
0.0180486
0.0162983
0.0147004
0.0132435
0.0119168
0.0107104
0.00961462
0.00862071
0.00772036
0.0069058
0.00616983
0.00550571
0.0049072
0.00436853
0.00388434
0.00344968
0.00305998
0.00271105
0.00239902
0.00212036
0.00187181
0.00165041
0.00145344
0.00127844
0.00112316
0.000985544
0.000863748
0.00075609
0.000661051
0.00057726
0.000503481
0.0004386
0.000381618
0.000331637
0.000287853
0.000249547
0.000216077
0.000186869
0.000161413
0.000139256
0.000119995
0.000103273
8.87728e-05
7.62163e-05
6.53565e-05
5.59759e-05
4.78835e-05
4.09114e-05
3.49121e-05
2.97562e-05
2.53309e-05
2.15377e-05
1.82903e-05
1.55138e-05
1.31427e-05
1.11205e-05
9.39794e-06
7.93265e-06
6.68761e-06
5.63118e-06
4.73587e-06
3.97789e-06
3.33733e-06
2.79661e-06
2.3406e-06
1.9566e-06
1.6336e-06
1.36237e-06
1.13472e-06
9.43907e-07
7.84188e-07
6.50629e-07
5.39223e-07
4.4644e-07
3.6921e-07
3.04898e-07
2.51339e-07
2.07058e-07
1.70394e-07
1.40076e-07
1.14939e-07
9.40809e-08
7.70916e-08
6.31719e-08
5.15506e-08
4.20357e-08
3.43568e-08
2.80866e-08
2.28635e-08
1.86057e-08
1.51328e-08
1.2308e-08
1.01241e-08
8.27168e-09
6.548e-09
5.20857e-09
4.07718e-09
3.26395e-09
2.71657e-09
2.08626e-09
1.59899e-09
1.37115e-09
9.93847e-10
7.15108e-10
7.29389e-10
5.75808e-10
4.20824e-10
4.02002e-10
3.25047e-10
2.1733e-10
1.75564e-10
1.76032e-10
1.82938e-10
6.46856e-11
7.42851e-11
2.79536e-11
-5.59073e-11
5.82713e-11
5.27931e-11
-6.13854e-11
-6.68873e-11
-2.88898e-11
6.83152e-11
2.05858e-10
2.45283e-10
2.10892e-10
2.04922e-10
1.7149e-10
1.44473e-10
1.29233e-10
3.94254e-11
9.9569e-11
1.31597e-10
1.25627e-10
2.79536e-11
-9.36155e-13
1.65496e-10
2.10424e-10
1.78396e-10
-7.7891e-11
-1.51661e-10
-1.14623e-10
-5.63753e-11
3.58195e-11
-1.19398e-11
-7.78673e-11
-2.09464e-10
-1.5262e-10
-6.13854e-11
-1.48078e-10
-1.82446e-10
-1.36139e-10
-2.20936e-10
-3.40124e-10
-3.56606e-10
-4.87219e-10
-7.04573e-10
-9.02589e-10
-9.30987e-10
-9.60345e-10
-1.22764e-09
-1.44761e-09
-1.78317e-09
-2.29979e-09
-2.88801e-09
-3.68333e-09
-4.82715e-09
-6.1176e-09
-7.51932e-09
-9.32876e-09
-1.15868e-08
-1.4395e-08
-1.7765e-08
-2.18145e-08
-2.69025e-08
-3.31158e-08
-4.07622e-08
-5.00836e-08
-6.14867e-08
-7.51969e-08
-9.19987e-08
-1.1257e-07
-1.37556e-07
-1.67669e-07
-2.04198e-07
-2.48365e-07
-3.01682e-07
-3.66084e-07
-4.43729e-07
-5.37199e-07
-6.49497e-07
-7.84611e-07
-9.46687e-07
-1.14055e-06
-1.3725e-06
-1.6497e-06
-1.98036e-06
-2.37451e-06
-2.84365e-06
-3.4013e-06
-4.06337e-06
-4.84835e-06
-5.77802e-06
-6.87781e-06
-8.17702e-06
-9.70972e-06
-1.15157e-05
-1.36413e-05
-1.61394e-05
-1.90718e-05
-2.25098e-05
-2.65351e-05
-3.12426e-05
-3.67405e-05
-4.31535e-05
-5.06243e-05
-5.93163e-05
-6.94167e-05
-8.11383e-05
-9.47241e-05
-0.000110451
-0.000128632
-0.000149625
-0.000173832
-0.000201712
-0.00023378
-0.000270617
-0.000312879
-0.000361304
-0.000416718
-0.00048005
-0.000552337
-0.000634742
-0.000728559
-0.000835231
-0.000956366
-0.00109375
-0.00124935
-0.00142537
-0.00162423
-0.00184861
-0.00210144
-0.00238598
-0.00270578
-0.00306476
-0.0034672
-0.00391777
-0.00442158
-0.0049842
-0.00561167
-0.00631057
-0.00708802
-0.00795174
-0.00891006
-0.00997196
-0.0111471
-0.0124459
-0.0138795
-0.0154598
-0.0171997
-0.0191126
-0.0212131
-0.0235167
-0.0260396
-0.0287991
-0.0318135
-0.0351021
-0.0386851
-0.0425839
-0.0468206
-0.0514186
-0.0564022
-0.0617967
-0.0676283
-0.0739242
-0.0807125
-0.088022
-0.0958824
-0.104324
-0.113379
-0.123077
-0.133452
-0.144536
-0.156361
-0.16896
-0.182367
-0.196614
-0.211733
-0.227757
-0.244716
-0.262642
-0.281562
-0.301507
-0.3225
-0.344569
-0.367734
-0.392017
-0.417435
-0.444003
-0.471732
-0.500629
-0.530699
-0.561939
-0.594344
-0.627901
-0.662593
-0.698392
-0.735265
-0.773169
-0.81205
-0.851841
-0.892462
-0.933814
-0.97578
-1.01822
-1.06095
-1.10377
-1.14643
-1.18859
-1.22989
-1.26983
-1.3078
-1.34305
-1.37466
-1.40157
-1.42275
-1.43762
-1.44652
-1.44523
-1.36461
-0.618692
0.0254837
0.00446872
0.734357
1.42512
1.36112
1.3049
1.25187
1.20024
1.15013
1.10169
1.05494
1.00986
0.966366
0.924384
0.883834
0.844646
0.806754
0.770103
0.734645
0.700339
0.66715
0.63505
0.604014
0.574019
0.545048
0.517084
0.490112
0.464118
0.439088
0.415009
0.391869
0.369652
0.348346
0.327934
0.308402
0.289733
0.271909
0.254913
0.238725
0.223326
0.208695
0.194812
0.181654
0.1692
0.157425
0.146309
0.135826
0.125954
0.116668
0.107946
0.0997628
0.092096
0.0849218
0.0782175
0.0719601
0.0661276
0.0606981
0.0556503
0.0509635
0.0466174
0.0425926
0.0388701
0.0354316
0.0322597
0.0293375
0.0266488
0.0241781
0.0219107
0.0198326
0.0179305
0.0161917
0.0146043
0.0131569
0.0118389
0.0106403
0.00955175
0.00856435
0.00766989
0.00686066
0.0061295
0.00546972
0.00487513
0.00433998
0.00385895
0.00342713
0.00303998
0.00269333
0.00238334
0.0021065
0.00185958
0.00163962
0.00144394
0.00127009
0.00111582
0.000979103
0.000858103
0.000751149
0.000656731
0.000573487
0.00050019
0.000435733
0.000379124
0.000329469
0.000285971
0.000247916
0.000214664
0.000185647
0.000160358
0.000138346
0.000119211
0.000102598
8.81924e-05
7.5718e-05
6.49293e-05
5.56101e-05
4.75706e-05
4.06439e-05
3.46838e-05
2.95616e-05
2.51653e-05
2.13969e-05
1.81708e-05
1.54124e-05
1.30568e-05
1.10477e-05
9.33642e-06
7.88074e-06
6.64393e-06
5.59441e-06
4.70487e-06
3.95192e-06
3.31555e-06
2.77828e-06
2.32521e-06
1.94379e-06
1.62295e-06
1.35339e-06
1.12714e-06
9.37669e-07
7.78982e-07
6.46367e-07
5.35809e-07
4.43567e-07
3.66788e-07
3.02798e-07
2.49673e-07
2.05705e-07
1.69302e-07
1.39151e-07
1.14175e-07
9.35319e-08
7.65787e-08
6.26798e-08
5.11975e-08
4.17971e-08
3.41067e-08
2.78751e-08
2.27758e-08
1.85541e-08
1.49611e-08
1.20721e-08
9.97009e-09
8.19477e-09
6.50199e-09
5.10281e-09
4.03457e-09
3.19921e-09
2.67099e-09
2.02857e-09
1.59227e-09
1.20303e-09
8.37475e-10
6.37139e-10
5.27497e-10
5.50641e-10
5.90271e-10
5.17522e-10
4.42886e-10
2.20789e-10
9.52401e-11
1.98373e-10
1.47461e-10
1.38239e-11
-5.21453e-11
4.89504e-11
-3.43526e-11
-1.15574e-10
4.11932e-12
1.38331e-12
-1.38719e-10
-6.00615e-12
9.7781e-11
2.16091e-10
1.52738e-10
2.24908e-11
1.81738e-10
1.69951e-10
1.13108e-10
2.27298e-10
1.30247e-10
-5.80762e-11
3.90507e-11
2.28682e-10
2.24908e-11
4.43276e-11
2.68236e-10
9.71269e-11
-7.16371e-12
-3.43526e-11
-1.16152e-10
-1.59059e-11
-1.06448e-10
-1.67794e-10
-8.06423e-11
-9.83597e-11
-1.99606e-10
-2.15437e-10
-1.19618e-10
-1.75153e-10
-2.2333e-10
-1.49348e-10
-2.19481e-10
-3.06054e-10
-4.04489e-10
-6.34328e-10
-6.88706e-10
-6.88052e-10
-8.70444e-10
-1.0694e-09
-1.15805e-09
-1.5169e-09
-1.83874e-09
-2.33378e-09
-2.94523e-09
-3.8077e-09
-4.74989e-09
-5.99178e-09
-7.48142e-09
-9.26424e-09
-1.15623e-08
-1.42637e-08
-1.76559e-08
-2.18813e-08
-2.67779e-08
-3.29545e-08
-4.05478e-08
-4.98226e-08
-6.11251e-08
-7.4755e-08
-9.14226e-08
-1.11816e-07
-1.3661e-07
-1.66645e-07
-2.02927e-07
-2.46781e-07
-2.99742e-07
-3.63632e-07
-4.40939e-07
-5.33698e-07
-6.45269e-07
-7.79528e-07
-9.40428e-07
-1.13306e-06
-1.36352e-06
-1.63891e-06
-1.96737e-06
-2.35892e-06
-2.82498e-06
-3.37889e-06
-4.03671e-06
-4.8165e-06
-5.74001e-06
-6.83265e-06
-8.12336e-06
-9.64602e-06
-1.14402e-05
-1.35517e-05
-1.60335e-05
-1.89466e-05
-2.2362e-05
-2.63609e-05
-3.10374e-05
-3.64994e-05
-4.28704e-05
-5.02923e-05
-5.89274e-05
-6.89615e-05
-8.06064e-05
-9.41031e-05
-0.000109727
-0.000127789
-0.000148644
-0.000172694
-0.000200391
-0.000232248
-0.000268844
-0.00031083
-0.000358938
-0.00041399
-0.000476907
-0.000548722
-0.000630588
-0.000723791
-0.000829767
-0.000950109
-0.00108659
-0.00124118
-0.00141605
-0.00161361
-0.00183652
-0.0020877
-0.00237038
-0.0026881
-0.00304474
-0.00344455
-0.00389218
-0.0043927
-0.00495164
-0.00557502
-0.00626936
-0.00704175
-0.00789984
-0.00885191
-0.00990688
-0.0110744
-0.0123647
-0.013789
-0.015359
-0.0170875
-0.018988
-0.0210749
-0.0233634
-0.0258699
-0.0286115
-0.0316064
-0.0348736
-0.0384334
-0.0423068
-0.0465161
-0.0510843
-0.0560356
-0.0613952
-0.0671891
-0.0734443
-0.0801887
-0.0874511
-0.095261
-0.103649
-0.112645
-0.122281
-0.132589
-0.143602
-0.155352
-0.167871
-0.181193
-0.19535
-0.210374
-0.226298
-0.243151
-0.260966
-0.27977
-0.299592
-0.320458
-0.342394
-0.365422
-0.389562
-0.414834
-0.44125
-0.468825
-0.497566
-0.527477
-0.558558
-0.590806
-0.624208
-0.658751
-0.694409
-0.731154
-0.768947
-0.807739
-0.847472
-0.888074
-0.929461
-0.971531
-1.01416
-1.05721
-1.10052
-1.14387
-1.18704
-1.22976
-1.27172
-1.31258
-1.35201
-1.38972
-1.4257
-1.46053
-1.49605
-1.53569
-1.57726
-1.543
-0.764672
-0.020398
-0.000941674
0.7114
1.39123
1.33033
1.27783
1.22815
1.17929
1.13141
1.0848
1.03958
0.995795
0.953434
0.912453
0.872798
0.834416
0.797257
0.761272
0.726424
0.692677
0.660002
0.628375
0.597775
0.568185
0.539589
0.511974
0.485326
0.459635
0.434889
0.411076
0.388185
0.366202
0.345116
0.324911
0.305574
0.287088
0.269438
0.252605
0.236571
0.221317
0.206824
0.193069
0.180033
0.167692
0.156025
0.14501
0.134622
0.124838
0.115636
0.106992
0.0988825
0.091284
0.0841737
0.0775289
0.0713271
0.0655462
0.0601647
0.0551615
0.050516
0.0462083
0.0422189
0.0385292
0.035121
0.031977
0.0290804
0.0264153
0.0239663
0.0217188
0.019659
0.0177736
0.01605
0.0144765
0.0130418
0.0117353
0.0105472
0.00946819
0.00848943
0.0076028
0.00680065
0.00607589
0.00542189
0.0048325
0.00430203
0.00382521
0.00339716
0.0030134
0.00266978
0.00236251
0.00208809
0.00184332
0.00162529
0.00143132
0.00125898
0.00110606
0.000970544
0.000850602
0.000744582
0.00065099
0.000568474
0.000495818
0.000431924
0.000375809
0.000326589
0.000283472
0.000245749
0.000212788
0.000184025
0.000158957
0.000137137
0.000118169
0.000101701
8.74216e-05
7.5056e-05
6.43616e-05
5.51238e-05
4.71547e-05
4.02886e-05
3.43806e-05
2.93034e-05
2.49455e-05
2.12099e-05
1.80119e-05
1.52775e-05
1.29426e-05
1.09512e-05
9.25478e-06
7.81177e-06
6.58583e-06
5.54548e-06
4.66371e-06
3.91745e-06
3.28664e-06
2.75398e-06
2.30496e-06
1.92684e-06
1.60876e-06
1.3415e-06
1.11728e-06
9.29454e-07
7.72143e-07
6.40675e-07
5.31054e-07
4.39594e-07
3.63524e-07
3.00239e-07
2.4751e-07
2.03932e-07
1.67881e-07
1.37874e-07
1.13118e-07
9.2827e-08
7.60624e-08
6.21867e-08
5.07612e-08
4.1397e-08
3.38503e-08
2.76484e-08
2.2459e-08
1.83487e-08
1.49707e-08
1.1994e-08
9.82215e-09
8.15283e-09
6.41743e-09
5.01398e-09
3.9915e-09
3.20507e-09
2.57882e-09
2.07814e-09
1.63935e-09
1.15185e-09
7.96656e-10
6.21076e-10
5.96982e-10
5.95179e-10
5.47569e-10
5.85098e-10
5.88596e-10
2.21495e-10
1.59746e-10
2.39132e-10
1.67302e-10
-7.44808e-11
-1.43786e-10
-5.68434e-11
1.24615e-11
9.70234e-11
9.11442e-11
-2.42197e-11
-9.01704e-11
-2.67446e-11
4.34081e-11
1.39458e-10
1.15364e-10
-3.85028e-11
1.57095e-10
2.74984e-10
2.14064e-10
1.01929e-10
7.60318e-11
5.43185e-11
1.17582e-11
1.15364e-10
1.80611e-10
6.84755e-11
1.44489e-10
1.05283e-10
1.03876e-10
1.34552e-10
9.11442e-11
-8.52651e-11
-2.49916e-10
-1.28673e-10
-2.84217e-11
-2.25426e-11
-1.31324e-10
-2.46562e-10
-2.44037e-10
-1.7136e-10
-1.47988e-10
-1.22794e-10
-1.80611e-10
-2.48239e-10
-4.22124e-10
-5.44918e-10
-6.31157e-10
-6.91354e-10
-8.01687e-10
-1.02571e-09
-1.13687e-09
-1.38258e-09
-1.86337e-09
-2.31882e-09
-3.03104e-09
-3.75657e-09
-4.7523e-09
-6.04136e-09
-7.44551e-09
-9.3667e-09
-1.14422e-08
-1.40228e-08
-1.74235e-08
-2.15351e-08
-2.64874e-08
-3.2536e-08
-4.02226e-08
-4.94011e-08
-6.05157e-08
-7.40853e-08
-9.07196e-08
-1.10946e-07
-1.35374e-07
-1.65073e-07
-2.01059e-07
-2.44517e-07
-2.97132e-07
-3.60546e-07
-4.36914e-07
-5.28916e-07
-6.39699e-07
-7.72641e-07
-9.32005e-07
-1.12304e-06
-1.35157e-06
-1.62448e-06
-1.95012e-06
-2.33814e-06
-2.80001e-06
-3.34919e-06
-4.0012e-06
-4.77432e-06
-5.68983e-06
-6.77275e-06
-8.05207e-06
-9.56135e-06
-1.13399e-05
-1.34329e-05
-1.58928e-05
-1.87805e-05
-2.21658e-05
-2.61297e-05
-3.07654e-05
-3.61795e-05
-4.24947e-05
-4.98515e-05
-5.84111e-05
-6.83573e-05
-7.99001e-05
-9.32788e-05
-0.000108766
-0.00012667
-0.000147342
-0.000171181
-0.000198636
-0.000230215
-0.000266491
-0.00030811
-0.000355797
-0.000410367
-0.000472734
-0.000543921
-0.000625071
-0.00071746
-0.000822509
-0.000941799
-0.00107709
-0.00123033
-0.00140367
-0.0015995
-0.00182046
-0.00206945
-0.00234966
-0.00266461
-0.00301813
-0.00341445
-0.00385817
-0.00435433
-0.00490839
-0.00552633
-0.00621461
-0.00698026
-0.00783086
-0.00877463
-0.00982041
-0.0109777
-0.0122568
-0.0136687
-0.015225
-0.0169385
-0.0188224
-0.0208911
-0.0231597
-0.0256444
-0.0283622
-0.031331
-0.0345698
-0.0380986
-0.0419385
-0.0461112
-0.0506398
-0.0555482
-0.0608613
-0.0666051
-0.0728062
-0.0794923
-0.086692
-0.0944345
-0.10275
-0.111669
-0.121222
-0.131442
-0.142361
-0.15401
-0.166423
-0.179632
-0.193669
-0.208566
-0.224356
-0.241069
-0.258735
-0.277384
-0.297043
-0.31774
-0.339498
-0.362342
-0.386292
-0.411367
-0.437582
-0.46495
-0.49348
-0.523179
-0.554047
-0.586081
-0.619275
-0.653614
-0.68908
-0.725647
-0.763282
-0.801945
-0.841584
-0.882142
-0.923548
-0.965721
-1.00856
-1.05197
-1.09582
-1.13996
-1.18427
-1.22858
-1.27276
-1.3167
-1.36041
-1.40411
-1.4484
-1.49465
-1.54538
-1.60377
-1.66447
-1.64074
-0.843209
-0.0493053
-0.00380447
0.69232
1.35913
1.29951
1.24914
1.2018
1.15519
1.10937
1.06458
1.02099
0.978657
0.937602
0.897801
0.859217
0.82181
0.78554
0.750369
0.716266
0.683204
0.65116
0.620114
0.590051
0.560958
0.532824
0.505638
0.479391
0.454074
0.429678
0.406193
0.383609
0.361916
0.341102
0.321154
0.302058
0.2838
0.266365
0.249734
0.233892
0.218818
0.204494
0.1909
0.178014
0.165816
0.154283
0.143393
0.133123
0.12345
0.114352
0.105805
0.0977863
0.0902729
0.0832421
0.0766714
0.0705387
0.0648222
0.0595005
0.0545528
0.0499588
0.0456988
0.0417536
0.0381046
0.0347341
0.0316248
0.0287603
0.0261245
0.0237026
0.0214799
0.0194427
0.0175781
0.0158735
0.0143173
0.0128984
0.0116063
0.0104313
0.00936412
0.00839613
0.00751924
0.00672592
0.00600912
0.00536231
0.0047794
0.00425477
0.00378319
0.00335984
0.0029803
0.00264046
0.00233656
0.00206515
0.00182307
0.00160744
0.0014156
0.00124516
0.00109392
0.000959885
0.00084126
0.000736405
0.000643841
0.000562231
0.000490373
0.000427181
0.000371682
0.000323003
0.000280359
0.00024305
0.000210451
0.000182004
0.000157211
0.000135631
0.000116871
0.000100584
8.64616e-05
7.42319e-05
6.36548e-05
5.45185e-05
4.66368e-05
3.98462e-05
3.40032e-05
2.89816e-05
2.46715e-05
2.09769e-05
1.78141e-05
1.51098e-05
1.28005e-05
1.08309e-05
9.15313e-06
7.72596e-06
6.51355e-06
5.48456e-06
4.61262e-06
3.87462e-06
3.25048e-06
2.72367e-06
2.27961e-06
1.90568e-06
1.59096e-06
1.32665e-06
1.10499e-06
9.19205e-07
7.63699e-07
6.33706e-07
5.25212e-07
4.34904e-07
3.59569e-07
2.96808e-07
2.44768e-07
2.01749e-07
1.66032e-07
1.36386e-07
1.11949e-07
9.18381e-08
7.51545e-08
6.1484e-08
5.02574e-08
4.1032e-08
3.34944e-08
2.73591e-08
2.226e-08
1.81348e-08
1.47967e-08
1.19436e-08
9.76609e-09
7.97961e-09
6.25073e-09
4.94915e-09
4.03858e-09
3.2137e-09
2.47442e-09
1.94711e-09
1.65566e-09
1.26315e-09
7.2325e-10
6.34213e-10
5.84575e-10
5.82106e-10
6.33135e-10
6.67058e-10
4.50324e-10
2.03037e-10
2.02073e-10
2.40732e-10
2.66922e-11
-1.43187e-10
-1.2875e-10
-6.09285e-11
-5.16319e-12
8.93502e-11
1.74302e-10
6.2658e-11
-1.12296e-10
-7.42873e-11
5.16802e-11
1.59552e-10
1.40717e-10
-2.63792e-11
8.35356e-11
3.09205e-10
2.36309e-10
1.5751e-10
1.36718e-11
-4.49011e-11
5.48009e-11
9.59299e-11
8.52651e-11
1.51695e-10
2.73239e-10
1.72573e-10
3.43365e-12
1.16381e-10
7.60168e-11
1.47499e-11
-1.32209e-10
-1.74302e-10
-8.32226e-11
-3.93995e-11
-9.89369e-11
-1.83551e-10
-2.73239e-10
-2.36309e-10
-1.49627e-10
-2.28025e-10
-1.27785e-10
-2.4859e-10
-3.6744e-10
-5.04047e-10
-5.34198e-10
-5.71868e-10
-7.40694e-10
-9.11224e-10
-1.13891e-09
-1.38923e-09
-1.77312e-09
-2.47334e-09
-3.13597e-09
-3.79924e-09
-4.86927e-09
-5.96382e-09
-7.455e-09
-9.12133e-09
-1.11317e-08
-1.38455e-08
-1.71829e-08
-2.13793e-08
-2.62274e-08
-3.22343e-08
-3.97335e-08
-4.88549e-08
-5.98688e-08
-7.32671e-08
-8.97661e-08
-1.09778e-07
-1.33863e-07
-1.63129e-07
-1.98701e-07
-2.41852e-07
-2.93918e-07
-3.56559e-07
-4.32082e-07
-5.23158e-07
-6.32578e-07
-7.64036e-07
-9.21778e-07
-1.11071e-06
-1.33657e-06
-1.60651e-06
-1.92869e-06
-2.31245e-06
-2.76917e-06
-3.31238e-06
-3.95715e-06
-4.72164e-06
-5.62724e-06
-6.69832e-06
-7.96345e-06
-9.45614e-06
-1.1215e-05
-1.3285e-05
-1.5718e-05
-1.85737e-05
-2.19218e-05
-2.58423e-05
-3.04269e-05
-3.57813e-05
-4.2027e-05
-4.93031e-05
-5.77686e-05
-6.76054e-05
-7.90213e-05
-9.22529e-05
-0.000107569
-0.000125277
-0.000145722
-0.000169299
-0.000196453
-0.000227684
-0.000263562
-0.000304723
-0.000351886
-0.000405857
-0.000467539
-0.000537945
-0.000618203
-0.000709577
-0.000813473
-0.000931454
-0.00106526
-0.00121681
-0.00138825
-0.00158194
-0.00180047
-0.00204673
-0.00232387
-0.00263536
-0.002985
-0.00337697
-0.00381583
-0.00430654
-0.00485453
-0.00546569
-0.00614643
-0.00690368
-0.00774496
-0.00867839
-0.0097127
-0.0108573
-0.0121224
-0.0135188
-0.0150581
-0.0167528
-0.0186161
-0.0206622
-0.022906
-0.0253635
-0.0280515
-0.0309879
-0.0341914
-0.0376817
-0.0414796
-0.0456068
-0.050086
-0.0549409
-0.0601962
-0.0658774
-0.0720111
-0.0786245
-0.0857461
-0.0934046
-0.10163
-0.110452
-0.119903
-0.130013
-0.140814
-0.152338
-0.164618
-0.177686
-0.191573
-0.206312
-0.221935
-0.238472
-0.255953
-0.274408
-0.293864
-0.314348
-0.335885
-0.358499
-0.382211
-0.407039
-0.433001
-0.460109
-0.488375
-0.517805
-0.548403
-0.580168
-0.613095
-0.647174
-0.682391
-0.718725
-0.756149
-0.794631
-0.834132
-0.874605
-0.915995
-0.958243
-1.00128
-1.04503
-1.08942
-1.13437
-1.17981
-1.22571
-1.27205
-1.31892
-1.36656
-1.41545
-1.46649
-1.52123
-1.58194
-1.65057
-1.71872
-1.69464
-0.885844
-0.0664093
-0.00556142
0.674285
1.32668
1.26769
1.21861
1.17297
1.12822
1.08427
1.04128
0.999378
0.958623
0.919024
0.880562
0.843209
0.806931
0.771697
0.737477
0.704247
0.671988
0.640683
0.610319
0.580888
0.55238
0.524789
0.49811
0.472335
0.447459
0.423477
0.40038
0.378161
0.356811
0.33632
0.316676
0.297867
0.27988
0.2627
0.24631
0.230695
0.215836
0.201715
0.188311
0.175605
0.163576
0.152202
0.141462
0.131333
0.121792
0.112818
0.104387
0.096477
0.0890652
0.0821293
0.0756472
0.0695969
0.0639572
0.0587069
0.0538256
0.0492931
0.0450901
0.0411976
0.0375974
0.0342719
0.0312041
0.0283777
0.0257771
0.0233874
0.0211943
0.0191843
0.0173445
0.0156626
0.0141271
0.012727
0.0114521
0.0102928
0.00923976
0.00828464
0.00741941
0.00663662
0.00592935
0.00529113
0.00471596
0.00419829
0.00373297
0.00331525
0.00294074
0.00260541
0.00230555
0.00203774
0.00179888
0.00158611
0.00139682
0.00122864
0.0010794
0.000947149
0.000830098
0.000726635
0.000635298
0.000554772
0.000483867
0.000421514
0.000366752
0.000318718
0.000276639
0.000239826
0.00020766
0.000179589
0.000155125
0.000133832
0.000115321
9.92497e-05
8.53148e-05
7.32473e-05
6.28104e-05
5.37953e-05
4.60181e-05
3.93176e-05
3.35522e-05
2.85974e-05
2.43443e-05
2.06987e-05
1.75778e-05
1.49093e-05
1.26307e-05
1.06872e-05
9.03177e-06
7.62353e-06
6.42707e-06
5.41185e-06
4.55155e-06
3.82326e-06
3.20733e-06
2.68746e-06
2.24935e-06
1.88036e-06
1.56986e-06
1.309e-06
1.09032e-06
9.07081e-07
7.53655e-07
6.25244e-07
5.18255e-07
4.2913e-07
3.54845e-07
2.93031e-07
2.41619e-07
1.98975e-07
1.63686e-07
1.34528e-07
1.1047e-07
9.05401e-08
7.4135e-08
6.06689e-08
4.95641e-08
4.05124e-08
3.30917e-08
2.69607e-08
2.19382e-08
1.79114e-08
1.45096e-08
1.17288e-08
9.57812e-09
7.80209e-09
6.25037e-09
4.88613e-09
3.9186e-09
3.18804e-09
2.46935e-09
1.94508e-09
1.53811e-09
1.12206e-09
8.23565e-10
7.24421e-10
7.85795e-10
5.66031e-10
4.88907e-10
5.87784e-10
5.46016e-10
3.18376e-10
1.99218e-10
1.13687e-10
1.72127e-11
-1.5025e-10
-1.5118e-10
1.38787e-11
1.22758e-10
2.02806e-11
3.98968e-11
8.76687e-11
-9.98082e-11
-5.35094e-11
1.22492e-10
5.9247e-11
-5.71095e-11
2.02806e-11
1.39041e-10
1.92284e-10
3.25044e-10
1.63053e-10
-4.62987e-11
-7.7124e-11
1.87743e-10
2.02286e-10