/*--------------------------------*- C++ -*----------------------------------*\
| =========                 |                                                 |
| \\      /  F ield         | foam-extend: Open Source CFD                    |
|  \\    /   O peration     | Version:     4.0                                |
|   \\  /    A nd           | Web:         http://www.foam-extend.org         |
|    \\/     M anipulation  |                                                 |
\*---------------------------------------------------------------------------*/
FoamFile
{
    version     2.0;
    format      ascii;
    class       volScalarField;
    location    "114";
    object      gradTz;
}
// * * * * * * * * * * * * * * * * * * * * * * * * * * * * * * * * * * * * * //

dimensions      [0 -1 0 1 0 0 0];

internalField   nonuniform List<scalar> 
8000
(
-4.10671e-14
-4.69416e-14
-3.52431e-14
-1.17928e-14
-1.17897e-14
1.16992e-14
5.02875e-17
-1.16865e-14
-2.93518e-14
-1.17346e-14
-3.52181e-14
1.27228e-30
-3.51788e-14
-1.1747e-14
-1.17349e-14
-2.34475e-14
-2.35017e-14
-2.34902e-14
1.17253e-14
2.347e-14
8.74376e-18
-1.76026e-14
5.87544e-15
5.86755e-15
-5.85333e-15
-4.69271e-14
-2.34703e-14
-2.34824e-14
-1.17352e-14
-3.52164e-14
1.75926e-14
1.91483e-17
-2.34614e-14
-2.34705e-14
-2.34785e-14
-5.88257e-15
1.17283e-14
2.93382e-14
1.17353e-14
1.76001e-14
2.93489e-14
1.2475e-17
-4.69412e-14
-1.17353e-14
-2.34706e-14
-1.1739e-14
-3.45952e-18
-1.17369e-14
1.17353e-14
5.48005e-18
-4.10724e-14
-1.17377e-14
-5.86767e-15
-1.7608e-14
3.52069e-14
-2.34674e-14
-1.76061e-14
1.1736e-14
-1.76005e-14
-1.76036e-14
-1.06749e-18
-1.17349e-14
-1.17345e-14
-2.34707e-14
-1.76034e-14
-1.7603e-14
-1.17351e-14
-2.34707e-14
-1.7603e-14
-2.34712e-14
-2.34709e-14
-1.76027e-14
-1.76029e-14
-1.76029e-14
-2.34707e-14
-1.7603e-14
-1.17355e-14
-1.76029e-14
-2.34707e-14
-1.76031e-14
-1.17353e-14
-2.34707e-14
-2.93385e-14
-1.17354e-14
-1.76032e-14
-5.86787e-15
2.93385e-14
-1.7603e-14
2.66191e-30
-2.93384e-14
2.93384e-14
-1.7603e-14
-1.7603e-14
-1.7603e-14
-1.76031e-14
2.93384e-14
-2.93384e-14
-1.76031e-14
-1.76031e-14
2.34707e-14
-2.93384e-14
-1.7603e-14
-2.93384e-14
-3.52061e-14
-1.76031e-14
2.34707e-14
-1.7603e-14
-1.7603e-14
-2.93384e-14
-2.34707e-14
-2.34707e-14
-2.34707e-14
-2.34707e-14
-2.34707e-14
2.34707e-14
-1.7603e-14
-2.93384e-14
-5.86768e-15
-1.7603e-14
-2.34707e-14
3.52061e-14
-1.17354e-14
-2.34707e-14
-1.17354e-14
-2.93384e-14
1.7603e-14
1.33416e-29
1.7603e-14
-2.34707e-14
-1.17354e-14
-1.36583e-22
2.34707e-14
-2.34707e-14
2.34707e-14
-2.34707e-14
1.7603e-14
-2.34707e-14
-1.17354e-14
1.7603e-14
2.34707e-14
2.94223e-23
-2.34707e-14
-2.34707e-14
-2.34707e-14
-2.34707e-14
-2.34707e-14
-3.52061e-14
-2.34707e-14
-2.34707e-14
-2.34707e-14
-1.17354e-14
-2.34707e-14
-2.34707e-14
-1.7603e-14
-2.34707e-14
-2.34707e-14
-2.34707e-14
-2.34707e-14
-2.34707e-14
-2.34707e-14
-1.17354e-14
-1.7603e-14
-1.7603e-14
-2.34707e-14
-5.86768e-15
-2.34707e-14
-2.34707e-14
-1.17354e-14
1.17354e-14
-2.34707e-14
-2.93384e-14
-1.9258e-26
1.17354e-14
-3.52061e-14
-2.93384e-14
-1.17354e-14
2.34707e-14
-1.17354e-14
-1.7603e-14
-2.34707e-14
2.34707e-14
5.78561e-27
-2.34707e-14
-3.52061e-14
-2.34707e-14
-2.34707e-14
-2.34707e-14
-2.34707e-14
-1.17354e-14
-1.53884e-27
1.17354e-14
-3.52061e-14
-2.34707e-14
-2.34707e-14
-2.34707e-14
-2.34707e-14
-1.17354e-14
-1.65904e-27
1.17354e-14
-2.34707e-14
-5.86768e-15
-3.52061e-14
-2.95595e-27
-2.34707e-14
5.86768e-15
-5.86768e-15
1.17354e-14
-2.34707e-14
-2.34707e-14
-2.34707e-14
2.34707e-14
-1.17354e-14
-2.34707e-14
-2.34707e-14
-2.34707e-14
-1.17354e-14
1.17354e-14
-1.17354e-14
-1.17354e-14
2.34707e-14
5.86768e-15
5.86768e-15
-2.34707e-14
-2.34707e-14
-1.13102e-39
-2.34707e-14
-2.34707e-14
-3.52061e-14
1.7603e-14
-1.7603e-14
-2.22542e-26
-2.34707e-14
-2.34707e-14
-1.7603e-14
-5.86768e-15
-5.86768e-15
5.02237e-25
2.93384e-14
3.52061e-14
-1.7603e-14
1.17354e-14
1.17354e-14
-2.34707e-14
1.17354e-14
-1.17354e-14
1.17354e-14
-1.17354e-14
4.10738e-14
-2.34707e-14
-2.34707e-14
-2.34707e-14
-2.34707e-14
-2.34707e-14
-1.17354e-14
-2.34707e-14
5.86768e-15
-1.17354e-14
-5.86768e-15
-5.86768e-15
-2.34707e-14
-2.34707e-14
5.86768e-15
-2.34707e-14
-1.17354e-14
-2.93384e-14
-2.34707e-14
-1.17354e-14
-4.64008e-23
-2.34707e-14
6.61401e-23
-1.17354e-14
-1.17354e-14
-2.34707e-14
-1.32456e-22
-1.17354e-14
-2.34707e-14
-2.34707e-14
-1.17354e-14
-2.34707e-14
5.86768e-15
-1.7603e-14
1.0024e-21
-1.17354e-14
2.34707e-14
-1.17354e-14
-9.46957e-22
-2.34707e-14
2.58437e-21
-5.86768e-15
-2.34707e-14
-1.17354e-14
-2.37134e-21
8.25499e-21
1.7603e-14
-2.34707e-14
1.76031e-14
-2.34707e-14
-5.68465e-21
-1.30972e-20
-2.54387e-30
1.17354e-14
-1.98772e-20
-1.7603e-14
5.86773e-15
-1.17354e-14
-1.17354e-14
-5.86766e-15
1.17353e-14
5.86773e-15
5.86771e-15
1.7603e-14
1.7603e-14
-1.76031e-14
-1.17354e-14
-1.17353e-14
6.03159e-20
-5.86768e-15
-5.86783e-15
-5.86777e-15
5.86787e-15
5.86768e-15
-5.8678e-15
-1.17352e-14
-5.86738e-15
-1.17355e-14
5.86768e-15
-1.17349e-14
2.347e-14
-2.34705e-14
2.34713e-14
-9.62375e-19
5.86768e-15
1.17357e-14
-5.86855e-15
-5.86672e-15
1.7603e-14
-1.17371e-14
5.86959e-15
1.17368e-14
1.76015e-14
-1.17362e-14
-2.03259e-30
-5.86465e-15
2.3474e-14
-1.17377e-14
5.86636e-15
-4.2691e-18
-1.17338e-14
1.76047e-14
-3.64065e-18
-1.7603e-14
5.87192e-15
-1.76007e-14
5.86268e-15
-3.52059e-14
0
-3.52059e-14
0
1.22894e-29
3.84021e-18
-1.17353e-14
-1.17484e-14
-1.76029e-14
1.17302e-14
-4.10786e-14
5.89037e-15
-2.34764e-14
-2.34897e-14
-2.34499e-14
-1.17207e-14
-5.89055e-15
-2.34783e-14
-3.52053e-14
-2.34611e-14
-5.86753e-15
-1.17451e-14
-2.9327e-14
-5.84538e-15
-5.8791e-15
-5.85533e-15
-1.75643e-14
5.85419e-15
-4.15575e-17
-1.17638e-14
-1.76023e-14
-2.34386e-14
3.22451e-17
-2.34864e-14
-1.7568e-14
2.34698e-14
-1.76746e-14
-5.86751e-15
-3.51869e-14
-1.17168e-14
-1.79843e-30
-2.35074e-14
-3.51814e-14
5.88184e-15
-5.87029e-15
2.34713e-14
5.27353e-14
3.51535e-14
3.51143e-14
3.51369e-14
-1.76333e-14
1.75786e-14
5.00128e-17
3.51577e-14
-1.75637e-14
1.45684e-17
-1.39318e-17
-1.75792e-14
3.76701e-30
3.51464e-14
2.32459e-17
1.76016e-14
-1.75901e-14
3.51186e-14
-1.76084e-14
-5.27204e-14
-1.75622e-14
-8.2926e-18
-7.87914e-18
-1.75648e-14
-1.75585e-14
1.75865e-14
0
-1.75798e-14
-5.27509e-14
5.27234e-14
-5.27396e-14
-1.75656e-14
-1.75709e-14
0
-1.75998e-14
1.75725e-14
-7.03198e-14
-1.758e-14
-7.03138e-14
-3.51657e-14
-5.27427e-14
3.517e-14
4.63746e-18
1.758e-14
-7.5407e-30
3.51564e-14
3.45192e-18
-3.51617e-14
-1.7583e-14
1.36701e-18
5.27414e-14
1.75801e-14
1.75811e-14
-1.7582e-14
-7.03203e-14
-1.75759e-14
-3.51617e-14
-3.51637e-14
1.75807e-14
1.16718e-18
5.32586e-19
-3.51597e-14
-7.64254e-30
-1.75797e-14
-3.51602e-14
-3.51605e-14
1.67236e-32
-1.75798e-14
-3.51602e-14
-1.75803e-14
-1.99946e-29
-1.75799e-14
-1.75803e-14
3.51602e-14
3.82118e-30
-2.34686e-19
1.75802e-14
-1.758e-14
3.51602e-14
-3.51603e-14
1.75801e-14
1.7839e-19
-5.28727e-20
-9.39123e-20
1.758e-14
-3.51603e-14
-5.27403e-14
1.75802e-14
-3.51602e-14
1.758e-14
1.75801e-14
6.96074e-20
9.99292e-30
-1.75801e-14
1.75801e-14
1.75801e-14
5.27404e-14
9.99302e-30
1.75801e-14
1.75801e-14
1.55835e-20
1.75801e-14
1.17546e-20
-6.79356e-21
1.75801e-14
-5.27403e-14
-1.75801e-14
3.51602e-14
1.75801e-14
-1.75801e-14
-1.75801e-14
-1.75801e-14
-1.75801e-14
5.27403e-14
-5.27403e-14
-1.75801e-14
3.51602e-14
7.99449e-30
-3.51602e-14
-1.46583e-21
-1.75801e-14
1.75801e-14
-1.52483e-29
1.75801e-14
-1.27925e-22
-1.75801e-14
-8.79005e-14
-1.75801e-14
-1.75801e-14
-1.75801e-14
-7.03204e-14
-1.75801e-14
-1.75801e-14
-1.75801e-14
-1.75801e-14
-1.75801e-14
-1.75801e-14
-1.75801e-14
-1.75801e-14
-1.75801e-14
7.03204e-14
-1.75801e-14
-1.75801e-14
-1.75801e-14
5.27403e-14
-1.75801e-14
3.81208e-30
-1.75801e-14
-1.75801e-14
-1.75801e-14
-1.75801e-14
-1.75801e-14
-7.01968e-25
3.51602e-14
-1.75801e-14
-1.75801e-14
-1.75801e-14
-3.51602e-14
-1.75801e-14
-1.75801e-14
-1.75801e-14
-3.51602e-14
-8.82537e-26
1.75801e-14
-3.51602e-14
-1.75801e-14
-1.75801e-14
-5.27403e-14
-1.75801e-14
-1.75801e-14
-3.51602e-14
1.75801e-14
-3.51602e-14
1.75801e-14
-3.51602e-14
-7.03204e-14
-5.27403e-14
-5.27403e-14
3.51602e-14
-1.75801e-14
-1.31985e-27
-5.27403e-14
-1.75801e-14
3.81208e-30
9.93334e-28
0
-1.75801e-14
-1.75801e-14
-1.75801e-14
-3.51602e-14
-1.75801e-14
9.74448e-27
-1.75801e-14
-3.51602e-14
-1.75801e-14
-3.51602e-14
-1.75801e-14
-1.75801e-14
-3.51602e-14
-1.75801e-14
-5.27403e-14
2.91926e-27
-8.79005e-14
3.51602e-14
-3.39767e-29
-3.51602e-14
-1.75801e-14
-1.75801e-14
-1.75801e-14
-3.51602e-14
1.75801e-14
-1.75801e-14
-3.51602e-14
-3.51602e-14
-3.51602e-14
-5.27403e-14
-1.75801e-14
-5.27403e-14
-3.51602e-14
3.51602e-14
-7.584e-27
1.75801e-14
-1.75801e-14
-1.75801e-14
-3.04966e-29
-1.75801e-14
-1.29373e-26
6.57484e-26
3.51602e-14
-1.75801e-14
-5.27403e-14
-3.51602e-14
-1.75801e-14
3.51602e-14
3.51602e-14
1.75801e-14
3.51602e-14
-7.03204e-14
-3.51602e-14
-1.75801e-14
-3.51602e-14
-1.75801e-14
-1.75801e-14
-1.75801e-14
-1.75801e-14
-1.75801e-14
-7.03204e-14
-3.51602e-14
-1.75801e-14
-1.75801e-14
-1.75801e-14
-3.51602e-14
-7.03204e-14
1.75801e-14
-3.51602e-14
-1.75801e-14
-5.27403e-14
1.46254e-23
-1.76876e-23
-3.51602e-14
-1.75801e-14
-1.75801e-14
-3.51602e-14
-5.27403e-14
1.75801e-14
-7.03204e-14
-1.75801e-14
-5.27403e-14
-1.75801e-14
-3.51602e-14
-1.75801e-14
-1.75801e-14
-7.03204e-14
1.75801e-14
-1.75801e-14
-7.03204e-14
-1.75801e-14
1.75801e-14
-7.03204e-14
-1.75801e-14
3.51602e-14
-5.0012e-22
-1.75801e-14
-1.75801e-14
-1.75801e-14
1.75801e-14
-1.75801e-14
1.2894e-21
-3.51602e-14
-1.75801e-14
-5.27403e-14
-1.75801e-14
-1.75801e-14
-5.27403e-14
3.68364e-21
-3.51602e-14
-7.03204e-14
-7.03204e-14
3.51602e-14
1.50368e-20
1.75801e-14
1.75801e-14
3.51602e-14
-5.27404e-14
-7.03204e-14
-1.75801e-14
-5.27403e-14
3.51603e-14
3.51601e-14
-5.27403e-14
1.75802e-14
3.516e-14
-3.51604e-14
-1.75801e-14
-1.75801e-14
-1.14129e-29
-3.51603e-14
-1.758e-14
5.27406e-14
5.27403e-14
1.75799e-14
-1.75803e-14
-1.75802e-14
-3.03461e-19
-7.03199e-14
5.27403e-14
-7.03202e-14
2.34115e-19
-1.75804e-14
-1.75795e-14
-3.51602e-14
1.75808e-14
-1.176e-18
-3.51606e-14
5.27412e-14
-3.51607e-14
1.75807e-14
5.27409e-14
-3.51602e-14
-1.53543e-18
-1.75818e-14
9.20513e-19
3.01862e-18
-1.75801e-14
-3.51637e-14
-1.75788e-14
7.15114e-30
3.51663e-14
1.67521e-18
3.51492e-14
-1.75781e-14
7.01797e-29
-5.27424e-14
-7.44647e-18
-7.03227e-14
5.76364e-18
-5.274e-14
-1.75667e-14
1.758e-14
-1.75838e-14
-1.75882e-14
-5.27398e-14
3.51786e-14
-5.00464e-18
3.51598e-14
5.27226e-14
-7.03436e-14
3.20972e-17
1.7573e-14
-7.03264e-14
-1.75721e-14
-1.61736e-17
-1.75797e-14
-1.75617e-14
-1.75607e-14
-1.75896e-14
2.02329e-29
3.02972e-29
-5.27271e-14
-1.21343e-17
-5.27512e-14
-1.75529e-14
-3.51589e-14
1.75938e-14
3.51288e-14
-1.75949e-14
-3.5191e-14
-3.51587e-14
-1.74763e-14
-1.76147e-14
-3.5177e-14
3.51407e-14
-5.27766e-14
-1.75236e-14
-1.76179e-14
-1.76177e-14
-1.75318e-14
-1.75578e-14
-1.75749e-14
1.75887e-14
1.57326e-18
5.85011e-14
5.84628e-14
2.92517e-14
5.84681e-14
-5.17307e-17
2.92856e-14
5.85687e-14
1.51099e-17
-1.44582e-17
0
1.66515e-29
-1.26508e-17
-2.92656e-14
1.15523e-17
8.77942e-14
2.92117e-14
8.77415e-14
-2.92156e-14
-2.9254e-14
-2.92714e-14
2.92458e-14
1.56783e-17
7.44264e-18
0
5.85153e-14
5.85213e-14
5.85147e-14
5.84861e-14
2.92437e-14
-5.84988e-14
9.5079e-18
8.7768e-14
2.92545e-14
5.84973e-14
-5.85129e-14
-1.06283e-28
-8.77639e-14
3.04712e-18
-2.92604e-14
-2.92547e-14
-8.77591e-14
5.85117e-14
-2.92547e-14
5.85075e-14
-2.92584e-14
-2.92513e-14
5.85095e-14
-2.92577e-14
-2.92548e-14
5.85096e-14
5.85096e-14
-2.92527e-14
2.92548e-14
-5.85087e-14
8.77661e-14
5.85073e-14
-1.39049e-18
-2.92535e-14
2.92548e-14
-2.53452e-29
8.7765e-14
2.92553e-14
5.85105e-14
5.85097e-14
2.92542e-14
2.92548e-14
5.85102e-14
5.85097e-14
5.85088e-14
-1.99228e-19
5.85102e-14
5.85094e-14
2.92548e-14
5.851e-14
2.92547e-14
-2.92548e-14
2.92548e-14
8.36167e-20
5.85097e-14
-2.92549e-14
5.85098e-14
8.77645e-14
-4.67518e-20
-4.14704e-20
-5.85097e-14
-2.92548e-14
5.85097e-14
5.85097e-14
5.85096e-14
-8.77645e-14
2.92549e-14
1.52216e-20
2.92548e-14
8.77645e-14
-8.77646e-14
5.85097e-14
4.65628e-29
2.92548e-14
-5.85097e-14
8.77646e-14
-2.92549e-14
8.77646e-14
1.17019e-13
-8.78515e-21
-5.85097e-14
5.85097e-14
2.92548e-14
8.77646e-14
5.85097e-14
5.85097e-14
5.85097e-14
5.85097e-14
2.92548e-14
-5.85097e-14
2.92549e-14
5.85097e-14
8.06543e-22
5.85097e-14
8.77646e-14
-5.85097e-14
8.41002e-22
8.77646e-14
1.66295e-29
5.85097e-14
1.07508e-22
1.17019e-13
2.92549e-14
5.85097e-14
8.77646e-14
8.77646e-14
-2.92549e-14
5.85097e-14
-5.85097e-14
5.85097e-14
2.92549e-14
5.85097e-14
2.92549e-14
-2.92549e-14
-3.52707e-23
-2.92549e-14
5.85097e-14
1.17019e-13
5.85097e-14
2.92549e-14
5.85097e-14
8.77646e-14
8.77646e-14
5.85097e-14
5.85097e-14
2.92549e-14
2.92549e-14
8.77646e-14
2.92549e-14
5.85097e-14
1.17019e-13
8.77646e-14
5.85097e-14
5.85097e-14
2.92549e-14
2.92549e-14
5.85097e-14
5.85097e-14
2.92549e-14
5.85097e-14
5.85097e-14
5.85097e-14
8.77646e-14
-2.20821e-26
1.17019e-13
1.75529e-13
-5.85097e-14
-2.92549e-14
1.17019e-13
1.17019e-13
8.77646e-14
-2.92549e-14
8.77646e-14
2.92549e-14
1.17019e-13
-8.77646e-14
2.92549e-14
5.85097e-14
1.17019e-13
1.17019e-13
8.77646e-14
5.85097e-14
1.17019e-13
4.65625e-29
2.92549e-14
5.85097e-14
8.77646e-14
5.85097e-14
8.77646e-14
5.85097e-14
1.17019e-13
2.92549e-14
2.92549e-14
2.92549e-14
5.85097e-14
8.77646e-14
8.77646e-14
5.85097e-14
5.85097e-14
5.85097e-14
8.77646e-14
2.92549e-14
-4.37431e-27
5.85097e-14
1.17019e-13
-8.77646e-14
5.85097e-14
1.75529e-13
8.77646e-14
1.46274e-13
5.85097e-14
2.92549e-14
5.85097e-14
2.92549e-14
-8.77646e-14
5.85097e-14
-1.84872e-26
8.77646e-14
8.77646e-14
-1.52247e-28
1.17019e-13
1.46274e-13
1.46274e-13
-1.17019e-13
1.17019e-13
2.92549e-14
8.77646e-14
1.17019e-13
2.92549e-14
-2.92549e-14
-3.80618e-29
-2.55396e-38
-2.92549e-14
-8.77646e-14
5.85097e-14
2.92549e-14
2.92549e-14
1.46274e-13
-2.92549e-14
8.77646e-14
-2.92549e-14
8.77646e-14
-5.85097e-14
5.85097e-14
1.46274e-13
5.85097e-14
2.92549e-14
1.75529e-13
-2.92549e-14
1.17019e-13
-5.85097e-14
1.17019e-13
1.45641e-23
2.92549e-14
1.17019e-13
5.85097e-14
-2.92549e-14
5.85097e-14
1.17019e-13
1.17019e-13
1.75529e-13
8.77646e-14
2.92549e-14
5.85097e-14
-2.92549e-14
8.77646e-14
-1.86428e-22
1.17019e-13
-5.85097e-14
2.92549e-14
1.75529e-13
5.85097e-14
-2.92549e-14
1.75529e-13
-5.85097e-14
8.46833e-22
1.17019e-13
2.92549e-14
-2.92549e-14
-1.60778e-21
-8.77646e-14
2.92549e-14
-2.92549e-14
2.92548e-14
2.92548e-14
5.85097e-14
-2.92548e-14
-5.85097e-14
-2.92549e-14
5.85097e-14
-8.48061e-21
1.75529e-13
2.92549e-14
-8.77645e-14
5.85097e-14
-1.46274e-13
-9.87381e-21
-5.85097e-14
8.77645e-14
5.85097e-14
6.31891e-29
2.92549e-14
-8.77645e-14
-8.77646e-14
1.26468e-32
-1.46274e-13
-2.9255e-14
-1.66141e-19
4.69893e-20
2.9255e-14
5.85097e-14
2.92548e-14
2.92551e-14
-8.77643e-14
-5.85097e-14
-8.7765e-14
-2.92552e-14
2.92551e-14
-1.51071e-19
8.77649e-14
-5.85097e-14
5.85095e-14
-2.92548e-14
2.92548e-14
-8.77642e-14
2.92545e-14
-8.77638e-14
-1.1702e-13
8.77649e-14
-2.92539e-14
2.92538e-14
-2.92537e-14
-8.77645e-14
-5.85103e-14
-1.1702e-13
2.9254e-14
5.85105e-14
2.00372e-18
-8.77633e-14
8.7762e-14
5.85109e-14
-8.77643e-14
1.53657e-18
-8.77626e-14
5.85041e-14
2.92508e-14
-2.92547e-14
1.17021e-13
2.92473e-14
5.85094e-14
-2.92518e-14
1.4627e-13
5.85225e-14
-1.17018e-13
-2.92584e-14
5.8501e-14
1.17018e-13
1.40093e-17
-1.17023e-13
2.92651e-14
-1.13146e-17
8.77392e-14
8.7776e-14
2.92476e-14
1.46272e-13
-5.8501e-14
-8.05486e-18
2.92457e-14
1.17026e-13
-8.77623e-14
5.85081e-14
2.9275e-14
5.84969e-14
-1.15446e-17
1.20951e-17
1.17041e-13
5.85076e-14
-8.7775e-14
-2.92249e-14
-5.85372e-14
5.84762e-14
-5.84911e-14
1.17014e-13
-2.9202e-14
-1.77239e-17
2.92355e-14
-5.85264e-14
1.46232e-13
8.78213e-14
-5.85102e-14
8.7729e-14
8.78122e-14
1.8494e-17
-5.85129e-14
-1.17065e-13
3.02812e-19
8.17234e-14
1.22597e-13
4.08542e-14
8.17107e-14
1.6966e-17
1.62663e-17
4.08895e-14
-4.08293e-14
1.42971e-17
-8.17626e-14
7.90197e-29
-4.08622e-14
-4.08869e-14
-2.28942e-17
-4.08642e-14
8.17401e-14
-1.22646e-13
4.08849e-14
4.08936e-14
-7.07924e-29
-4.08921e-14
-2.78822e-29
4.08906e-14
8.17588e-14
-6.64225e-18
8.1752e-14
1.22628e-13
1.22623e-13
-4.08708e-14
4.08812e-14
8.1743e-14
1.22633e-13
2.04386e-13
1.22621e-13
-4.08764e-14
1.63509e-13
4.08764e-14
1.63506e-13
4.08736e-14
8.17556e-14
8.17555e-14
1.2263e-13
8.17531e-14
1.63506e-13
1.84078e-18
4.08749e-14
8.17516e-14
1.46294e-18
-2.70408e-18
4.08741e-14
-4.08732e-14
4.08788e-14
1.22629e-13
4.08749e-14
1.22631e-13
1.22631e-13
-1.38137e-18
4.08767e-14
8.1754e-14
-4.08772e-14
8.17534e-14
1.63507e-13
8.17534e-14
4.08771e-14
8.17535e-14
4.08764e-14
1.2263e-13
8.17535e-14
1.2263e-13
4.08767e-14
4.08766e-14
1.63507e-13
8.17535e-14
8.17535e-14
8.17536e-14
8.17536e-14
4.08767e-14
-8.30702e-20
1.2263e-13
4.08767e-14
4.08767e-14
4.08768e-14
4.64463e-20
8.17535e-14
8.17534e-14
-6.46007e-20
1.63507e-13
5.0404e-20
2.2221e-20
-1.63507e-13
1.2263e-13
8.17535e-14
2.04384e-13
1.2263e-13
-4.08767e-14
1.2263e-13
1.2263e-13
8.17535e-14
-1.2263e-13
1.02762e-20
3.71782e-29
-7.75127e-21
2.04384e-13
1.63507e-13
-4.08768e-14
4.08767e-14
0
4.08767e-14
8.17535e-14
1.2263e-13
2.04384e-13
1.2263e-13
4.08767e-14
-4.08767e-14
-5.50828e-22
1.63507e-13
8.17535e-14
1.2263e-13
8.17535e-14
-1.2263e-13
4.08767e-14
1.2263e-13
1.2263e-13
-1.26531e-22
-4.08767e-14
1.63507e-13
-8.17535e-14
1.63507e-13
1.63507e-13
1.2263e-13
-4.08767e-14
1.63507e-13
-4.08767e-14
1.2263e-13
-1.76592e-28
1.2263e-13
8.17535e-14
-4.08767e-14
-3.71772e-29
-1.2263e-13
1.2263e-13
1.2263e-13
1.2263e-13
4.08767e-14
1.2263e-13
1.2263e-13
1.2263e-13
1.2263e-13
1.2263e-13
1.2263e-13
1.63507e-13
1.2263e-13
4.08767e-14
1.2263e-13
8.17535e-14
1.2263e-13
2.04384e-13
1.63507e-13
1.2263e-13
1.2263e-13
1.2263e-13
8.17535e-14
1.2263e-13
8.17535e-14
1.2263e-13
1.63507e-13
2.4526e-13
-4.64715e-29
1.63507e-13
1.63507e-13
4.08767e-14
-1.42011e-26
1.63507e-13
1.2263e-13
1.2263e-13
-5.96676e-27
1.63507e-13
4.08767e-14
1.2263e-13
3.11865e-27
1.2263e-13
1.2263e-13
1.63507e-13
1.63507e-13
1.2263e-13
2.04384e-13
8.17535e-14
4.08767e-14
8.17535e-14
1.4084e-27
1.63507e-13
8.17535e-14
8.17535e-14
1.2263e-13
2.04384e-13
8.17535e-14
-7.1671e-27
8.17535e-14
2.04384e-13
1.63507e-13
1.63507e-13
8.17535e-14
4.08767e-14
8.17535e-14
8.17535e-14
-4.08767e-14
1.63507e-13
1.63507e-13
1.2263e-13
8.36487e-29
4.08767e-14
1.63507e-13
1.63507e-13
1.63507e-13
8.17535e-14
-8.17535e-14
8.17535e-14
2.04384e-13
-1.2263e-13
-9.2943e-30
-1.63507e-13
1.63507e-13
1.63507e-13
9.92758e-27
2.04384e-13
1.63507e-13
1.63507e-13
-8.17535e-14
8.17535e-14
2.04384e-13
1.63507e-13
1.63507e-13
-1.58171e-25
1.39414e-28
-4.08767e-14
-8.17535e-14
4.08767e-14
-8.17535e-14
1.63507e-13
4.08767e-14
2.98387e-25
1.2263e-13
-4.08767e-14
1.63507e-13
-4.08767e-14
2.04384e-13
-8.17535e-14
1.2263e-13
1.2263e-13
8.17535e-14
8.17535e-14
1.2263e-13
4.08767e-14
1.63507e-13
-1.06365e-28
8.17535e-14
-7.23275e-24
1.74924e-23
1.2263e-13
1.2263e-13
4.08767e-14
1.2263e-13
8.17535e-14
8.17535e-14
1.2263e-13
4.08767e-14
4.08767e-14
1.2263e-13
4.08767e-14
2.6024e-28
4.08767e-14
1.2263e-13
8.17535e-14
4.08767e-14
8.17535e-14
8.17535e-14
4.08767e-14
8.17535e-14
4.08767e-14
4.08768e-14
-4.08767e-14
4.08767e-14
4.08767e-14
4.08767e-14
1.2263e-13
8.17535e-14
4.08768e-14
4.08767e-14
1.2263e-13
8.17535e-14
-2.34043e-21
7.9002e-29
-8.17535e-14
4.08768e-14
4.08768e-14
8.17535e-14
4.08767e-14
-1.2263e-13
-4.08767e-14
-4.08768e-14
-4.08767e-14
4.08768e-14
8.17535e-14
4.08767e-14
4.08768e-14
4.08767e-14
-2.18685e-20
-8.17535e-14
-2.82936e-20
-8.17534e-14
-4.25419e-28
8.17534e-14
1.2263e-13
4.08769e-14
-4.08767e-14
-1.34215e-19
-1.51111e-19
-8.17535e-14
-1.39351e-28
-8.17536e-14
1.63507e-13
7.42947e-29
4.08767e-14
4.08769e-14
-1.86875e-19
4.08772e-14
4.08767e-14
1.22629e-13
4.08773e-14
4.08767e-14
-1.05181e-18
-8.17523e-14
1.22631e-13
-8.17534e-14
4.08762e-14
4.0875e-14
-8.17534e-14
-6.92321e-19
4.08775e-14
4.088e-14
8.17534e-14
-1.99071e-18
-1.63503e-13
1.22632e-13
8.17468e-14
-4.08794e-14
6.10648e-18
4.97165e-18
-8.17568e-14
1.22626e-13
8.17595e-14
1.63508e-13
-1.22781e-17
2.45251e-13
4.08908e-14
2.04392e-13
8.17364e-14
4.08658e-14
1.89579e-17
2.04394e-13
4.08677e-14
4.08577e-14
-4.08763e-14
4.08973e-14
-8.1758e-14
1.63499e-13
1.22647e-13
6.74327e-18
4.08474e-14
1.63474e-13
8.17598e-14
2.04413e-13
8.17337e-14
2.45254e-13
1.22657e-13
4.08756e-14
-1.09469e-17
2.04366e-13
3.6107e-17
1.22639e-13
4.08094e-14
4.08339e-14
2.86559e-17
4.089e-14
8.17345e-14
2.04375e-13
-4.08583e-14
1.22659e-13
-4.0875e-14
1.63445e-13
4.09317e-14
1.6356e-13
4.07967e-14
8.17123e-14
6.24375e-17
1.63514e-13
8.16978e-14
1.22637e-13
5.52888e-19
-3.82862e-20
-5.2433e-14
-1.88547e-17
1.04828e-13
-1.04828e-13
-1.04828e-13
-1.04796e-13
7.66674e-17
-5.23772e-14
1.5722e-13
-5.2407e-14
5.23943e-14
-1.04815e-13
-2.36572e-17
-5.23965e-14
-2.09621e-13
5.23874e-14
-1.04826e-13
-1.04817e-13
-1.04808e-13
5.24085e-14
-8.10137e-18
-6.55667e-29
-5.24161e-14
1.04825e-13
5.24155e-14
-6.22922e-18
0
0
5.24092e-14
5.24043e-14
1.04819e-13
-5.24182e-14
2.09638e-13
1.16723e-17
-7.30313e-18
5.24027e-14
1.57229e-13
5.24126e-14
1.04819e-13
-2.61657e-18
1.57231e-13
5.2412e-14
1.04817e-13
1.04821e-13
1.57231e-13
1.0482e-13
5.24114e-14
0
-1.34011e-18
-1.04818e-13
4.77295e-29
1.57227e-13
5.00552e-28
1.57231e-13
-5.24099e-14
1.0482e-13
-1.81862e-28
-9.09472e-29
1.04821e-13
5.24099e-14
-1.90391e-18
5.24104e-14
1.97057e-18
-1.0482e-13
5.24093e-14
5.24096e-14
2.66429e-19
-1.25128e-28
-6.52554e-19
2.6205e-13
-5.241e-14
1.57229e-13
1.0482e-13
1.0482e-13
-5.24101e-14
5.24101e-14
1.84332e-19
-8.23437e-20
-7.34803e-20
5.241e-14
-5.24099e-14
-1.60875e-28
-9.20803e-20
5.24098e-14
2.6205e-13
5.24099e-14
5.241e-14
5.24101e-14
1.5723e-13
1.0482e-13
1.0482e-13
1.0482e-13
1.5723e-13
5.241e-14
1.0482e-13
1.0482e-13
1.5723e-13
5.241e-14
1.7561e-20
-1.52795e-20
2.0964e-13
-3.575e-28
-1.66526e-20
1.5723e-13
5.241e-14
-2.15426e-21
5.241e-14
1.60148e-21
-5.241e-14
-3.55435e-21
1.5723e-13
5.241e-14
1.0482e-13
1.9172e-21
-2.18406e-21
1.0482e-13
5.241e-14
6.76146e-22
-5.241e-14
1.43e-28
-4.14099e-22
-3.50809e-22
5.241e-14
-5.241e-14
-3.17608e-22
-5.241e-14
-5.241e-14
-1.89613e-22
-4.54584e-29
8.90846e-23
-5.241e-14
5.241e-14
2.61129e-23
5.241e-14
-5.241e-14
5.241e-14
0
1.5723e-13
-1.0482e-13
1.5723e-13
-5.241e-14
-5.241e-14
-5.241e-14
5.241e-14
2.76447e-24
0
0
-5.241e-14
-5.241e-14
-1.03158e-24
1.0482e-13
-5.241e-14
5.241e-14
-5.241e-14
-5.241e-14
-1.0482e-13
-2.4857e-25
2.03661e-25
1.60875e-28
5.241e-14
-5.241e-14
-5.241e-14
5.95832e-30
5.48271e-26
-4.49142e-26
5.241e-14
2.80277e-26
2.00581e-26
-1.0482e-13
-1.0482e-13
2.0964e-13
5.241e-14
-9.69474e-27
5.241e-14
0
1.5723e-13
5.241e-14
5.241e-14
0
1.5723e-13
-2.28443e-28
-4.54584e-29
1.54074e-27
-5.241e-14
-1.09575e-40
1.0482e-13
-5.241e-14
1.0482e-13
3.37419e-27
-1.0482e-13
1.13994e-27
5.241e-14
2.04312e-27
-2.04582e-27
5.241e-14
5.241e-14
-5.241e-14
1.0482e-13
1.0482e-13
-5.241e-14
1.26026e-28
-2.81826e-27
-5.241e-14
5.241e-14
-5.241e-14
5.241e-14
1.5723e-13
3.36957e-27
2.55064e-27
1.5723e-13
-1.0482e-13
-5.241e-14
-5.241e-14
-3.81878e-27
-5.241e-14
-1.0482e-13
-5.241e-14
5.241e-14
5.241e-14
-1.0482e-13
5.241e-14
5.241e-14
-4.47567e-27
5.241e-14
1.73754e-26
5.241e-14
-2.9255e-26
1.0482e-13
-5.241e-14
5.241e-14
-5.241e-14
-1.60875e-28
-9.09168e-29
3.1446e-13
-1.65179e-25
2.03504e-25
1.0482e-13
5.241e-14
3.81589e-25
1.0482e-13
5.241e-14
-5.241e-14
4.39234e-25
-5.45501e-28
5.241e-14
5.241e-14
-1.0482e-13
-5.241e-14
-5.241e-14
5.241e-14
-5.241e-14
-1.5723e-13
1.0482e-13
-5.241e-14
1.0482e-13
-1.5723e-13
1.7875e-29
-1.0482e-13
-1.5723e-13
1.2631e-23
-1.52186e-23
-1.0482e-13
-1.5723e-13
-1.43e-28
-1.5723e-13
-2.0964e-13
-5.241e-14
-9.09168e-29
5.241e-14
-2.6205e-13
9.17863e-23
-1.0482e-13
5.241e-14
-1.0482e-13
-2.0964e-13
-1.0482e-13
1.0482e-13
-2.0964e-13
5.241e-14
0
-2.6205e-13
-5.241e-14
1.0482e-13
-4.09126e-28
2.0964e-13
-1.08285e-21
1.0482e-13
-5.241e-14
5.241e-14
5.241e-14
-2.31994e-21
5.241e-14
3.12e-21
-5.241e-14
-4.17567e-21
-2.0964e-13
1.0482e-13
5.241e-14
-5.241e-14
5.241e-14
-5.241e-14
1.0482e-13
-5.241e-14
-5.241e-14
1.0482e-13
-1.0482e-13
2.0964e-13
-7.40157e-20
0
5.24101e-14
5.241e-14
5.24099e-14
1.0482e-13
-1.04576e-19
-5.241e-14
-1.0482e-13
-5.24099e-14
5.24102e-14
1.5723e-13
5.241e-14
2.0964e-13
-1.0482e-13
1.0482e-13
-1.0482e-13
1.5723e-13
-5.24099e-14
4.59118e-19
5.24099e-14
1.5723e-13
-5.24106e-14
-3.47547e-19
5.24103e-14
-5.24095e-14
1.04183e-31
5.24104e-14
1.04819e-13
5.24093e-14
1.37259e-18
2.62049e-13
-5.24099e-14
-5.24099e-14
-5.24138e-14
-5.24055e-14
4.69958e-18
-5.24137e-14
5.2407e-14
1.57232e-13
-1.64287e-18
-1.57229e-13
-1.57225e-13
5.24118e-14
-2.25545e-18
-5.24121e-14
5.24123e-14
2.09639e-13
-1.57229e-13
-5.24096e-14
2.09631e-13
2.09649e-13
-5.24135e-14
-1.57246e-13
4.60106e-18
2.09632e-13
5.23524e-18
-1.04813e-13
-1.04812e-13
1.04806e-13
-1.57247e-13
-1.57199e-13
1.50175e-17
2.09636e-13
5.24004e-14
-2.09617e-13
1.57235e-13
-5.24577e-14
-1.03444e-17
-1.04784e-13
1.04805e-13
-5.24202e-14
-1.04779e-13
-5.24342e-14
5.23806e-14
2.0966e-13
5.24078e-14
5.24386e-14
2.62006e-13
-3.33007e-17
5.24593e-14
-1.04815e-13
-1.57205e-13
1.04797e-13
-1.57263e-13
-2.09613e-13
1.04797e-13
5.24095e-14
-1.04731e-13
1.57234e-13
-5.24125e-14
3.14477e-13
1.91468e-13
-1.87654e-17
-6.3897e-14
1.27665e-13
-6.37903e-14
1.62875e-17
-1.56558e-17
1.91476e-13
1.91477e-13
1.27666e-13
1.91492e-13
1.27665e-13
1.27677e-13
6.38035e-14
2.22752e-17
6.38165e-14
1.27624e-13
1.27665e-13
9.25914e-18
-8.82486e-18
1.27639e-13
-7.99668e-18
6.38357e-14
1.91485e-13
6.38215e-14
6.49695e-18
6.15385e-18
6.38286e-14
6.38176e-14
1.27657e-13
2.55315e-13
1.91487e-13
1.27653e-13
-1.27658e-13
6.38367e-14
-3.60992e-18
1.27651e-13
-4.36044e-29
1.27661e-13
6.38292e-14
-6.38292e-14
-1.66089e-28
2.24723e-18
-1.27661e-13
-1.94333e-18
1.80415e-18
-1.27657e-13
1.2766e-13
6.38323e-14
1.91488e-13
6.3827e-14
1.91486e-13
-1.27657e-13
1.27658e-13
6.38286e-14
6.38311e-14
1.27659e-13
1.27659e-13
-6.38308e-14
1.27659e-13
6.38301e-14
1.27659e-13
-6.38292e-14
1.9149e-13
1.91489e-13
1.27658e-13
1.27659e-13
6.38299e-14
1.27659e-13
6.38288e-14
6.38298e-14
1.27659e-13
-4.71884e-19
1.4137e-19
1.91489e-13
1.27659e-13
1.66913e-28
1.27659e-13
6.38295e-14
6.38296e-14
6.38297e-14
1.91489e-13
1.91489e-13
1.91489e-13
6.38294e-14
-1.27659e-13
6.33325e-20
1.27659e-13
6.38296e-14
2.55319e-13
6.38296e-14
1.91489e-13
1.27659e-13
-2.60177e-20
6.38296e-14
6.38296e-14
6.38296e-14
1.91489e-13
6.38296e-14
1.27659e-13
1.91489e-13
6.38296e-14
1.91489e-13
-6.58789e-21
6.38296e-14
1.27659e-13
1.27659e-13
1.27659e-13
6.38296e-14
6.38296e-14
6.38296e-14
-1.00603e-21
8.62683e-22
1.91489e-13
1.27659e-13
1.27659e-13
6.38296e-14
-6.38296e-14
6.38296e-14
6.38296e-14
1.27659e-13
-5.53634e-29
-1.7348e-22
6.38296e-14
1.91489e-13
1.27659e-13
6.38296e-14
1.27659e-13
-6.25128e-23
-6.38296e-14
6.38296e-14
1.27659e-13
6.38296e-14
1.27659e-13
6.38296e-14
6.38296e-14
1.27659e-13
1.27659e-13
-6.38296e-14
6.38296e-14
-1.27659e-13
6.38296e-14
6.38296e-14
6.38296e-14
6.38296e-14
6.38296e-14
1.27659e-13
6.38296e-14
6.38296e-14
6.38296e-14
6.38296e-14
6.38296e-14
6.38296e-14
-6.38296e-14
6.38296e-14
6.38296e-14
6.38296e-14
-6.38296e-14
6.38296e-14
6.38296e-14
-4.42907e-28
6.38296e-14
6.38296e-14
6.38296e-14
6.38296e-14
6.38296e-14
-6.38296e-14
6.38296e-14
1.27659e-13
1.70931e-26
6.38296e-14
6.38296e-14
1.78488e-26
-6.38296e-14
6.38296e-14
1.91489e-13
-6.38296e-14
5.38185e-27
-6.38296e-14
-6.38296e-14
-6.38296e-14
-6.38296e-14
6.38296e-14
8.25735e-28
6.38296e-14
6.38296e-14
-6.38296e-14
6.38296e-14
1.27659e-13
-6.38296e-14
6.38296e-14
1.16105e-28
1.27659e-13
1.27659e-13
6.38296e-14
-6.38296e-14
6.38296e-14
1.27659e-13
-8.9036e-28
-6.38296e-14
-6.38296e-14
1.26059e-27
1.27659e-13
-1.91489e-13
6.38296e-14
-6.38296e-14
2.55319e-13
-6.38296e-14
1.91489e-13
-5.02137e-28
-6.38296e-14
1.27659e-13
-6.38296e-14
-6.64361e-28
-6.38296e-14
6.38296e-14
1.27659e-13
6.38296e-14
-6.38296e-14
-6.38296e-14
1.91489e-13
6.38296e-14
1.08849e-28
-6.38296e-14
6.38296e-14
-6.38296e-14
1.27659e-13
-6.38296e-14
-6.38296e-14
6.38296e-14
6.38296e-14
-6.38296e-14
-6.38296e-14
1.61277e-25
-1.27659e-13
-3.34985e-25
1.27659e-13
-6.38296e-14
6.38296e-14
1.27659e-13
1.27659e-13
-6.38296e-14
6.38296e-14
1.27659e-13
-6.38296e-14
-6.61528e-25
-6.38296e-14
1.27659e-13
6.38296e-14
6.38296e-14
1.27659e-13
1.27659e-13
1.27659e-13
6.55891e-24
6.38296e-14
1.27659e-13
6.38296e-14
-6.38296e-14
6.38296e-14
1.27659e-13
6.38296e-14
6.38296e-14
1.27659e-13
6.38296e-14
6.38296e-14
1.27659e-13
1.27659e-13
6.38296e-14
6.38296e-14
-6.38296e-14
1.27659e-13
6.38296e-14
1.27659e-13
-6.38296e-14
1.27659e-13
1.27659e-13
1.27659e-13
-3.33803e-28
1.27659e-13
7.00453e-22
-8.24723e-22
6.38296e-14
6.38296e-14
-7.11146e-28
6.38296e-14
6.38296e-14
6.38296e-14
1.27659e-13
6.38296e-14
6.38296e-14
1.27659e-13
1.27659e-13
6.38296e-14
6.38296e-14
1.27659e-13
1.27659e-13
1.27659e-13
1.27659e-13
-6.38296e-14
1.27659e-13
-8.37822e-21
-6.38296e-14
-6.38296e-14
1.27659e-13
1.27659e-13
1.27659e-13
1.27659e-13
2.14393e-20
-9.7604e-20
1.91489e-13
1.25977e-19
-7.61926e-28
6.38296e-14
1.27659e-13
1.27659e-13
1.27659e-13
1.27659e-13
1.27659e-13
3.33199e-19
-7.61854e-28
-8.85767e-28
6.38295e-14
1.27659e-13
1.27659e-13
1.2766e-13
-9.28782e-28
1.27659e-13
4.54086e-19
6.38296e-14
-5.53696e-28
-6.38305e-14
6.38293e-14
-6.38288e-14
1.2766e-13
9.26759e-19
1.2766e-13
-1.68646e-18
-6.38308e-14
2.03637e-18
-7.10319e-28
6.38279e-14
6.38295e-14
1.27657e-13
1.91493e-13
1.27661e-13
6.38244e-14
-6.38267e-14
6.38339e-14
-6.38343e-14
6.38206e-14
-1.27655e-13
-6.3817e-14
1.27656e-13
6.38197e-14
-6.38241e-14
6.3832e-14
-6.38352e-14
6.46379e-18
-1.27651e-13
3.75688e-28
-1.27674e-13
6.38247e-14
1.36563e-17
6.38289e-14
-1.03598e-17
-1.65492e-17
-6.38111e-14
-6.38162e-14
-2.64748e-17
6.38215e-14
-1.27634e-13
6.3844e-14
-1.2769e-13
6.38281e-14
-6.38003e-14
0
-1.02477e-17
-6.38169e-14
5.36935e-30
6.38156e-14
1.24141e-17
1.27629e-13
-6.38e-14
1.91509e-13
-1.27683e-13
1.277e-13
-1.27669e-13
6.37769e-14
4.53715e-28
-6.38981e-14
-1.27635e-13
5.75487e-17
-5.96241e-17
6.38478e-14
6.43177e-17