/*--------------------------------*- C++ -*----------------------------------*\
| =========                 |                                                 |
| \\      /  F ield         | foam-extend: Open Source CFD                    |
|  \\    /   O peration     | Version:     4.0                                |
|   \\  /    A nd           | Web:         http://www.foam-extend.org         |
|    \\/     M anipulation  |                                                 |
\*---------------------------------------------------------------------------*/
FoamFile
{
    version     2.0;
    format      ascii;
    class       volVectorField;
    location    "114";
    object      gradTSol;
}
// * * * * * * * * * * * * * * * * * * * * * * * * * * * * * * * * * * * * * //

dimensions      [0 0 0 0 0 0 0];

internalField   nonuniform List<vector> 
8000
(
(0.00638219 -432.899 -4.10671e-14)
(0.823195 -432.857 -4.69416e-14)
(1.56355 -432.892 -3.52431e-14)
(1.44691 -432.907 -1.17928e-14)
(1.36443 -432.915 -1.17897e-14)
(1.29708 -432.921 1.16992e-14)
(1.23685 -432.924 5.02875e-17)
(1.18114 -432.927 -1.16865e-14)
(1.12878 -432.93 -2.93518e-14)
(1.0791 -432.932 -1.17346e-14)
(1.0317 -432.934 -3.52181e-14)
(0.986293 -432.936 1.27228e-30)
(0.942678 -432.937 -3.51788e-14)
(0.900701 -432.939 -1.1747e-14)
(0.860246 -432.94 -1.17349e-14)
(0.821216 -432.941 -2.34475e-14)
(0.783534 -432.943 -2.35017e-14)
(0.747138 -432.944 -2.34902e-14)
(0.711975 -432.945 1.17253e-14)
(0.677999 -432.946 2.347e-14)
(0.645175 -432.947 8.74376e-18)
(0.613471 -432.947 -1.76026e-14)
(0.582859 -432.948 5.87544e-15)
(0.553315 -432.949 5.86755e-15)
(0.52482 -432.949 -5.85333e-15)
(0.497353 -432.95 -4.69271e-14)
(0.470897 -432.951 -2.34703e-14)
(0.445436 -432.951 -2.34824e-14)
(0.420954 -432.952 -1.17352e-14)
(0.397435 -432.952 -3.52164e-14)
(0.374863 -432.953 1.75926e-14)
(0.353223 -432.953 1.91483e-17)
(0.332498 -432.953 -2.34614e-14)
(0.31267 -432.954 -2.34705e-14)
(0.293722 -432.954 -2.34785e-14)
(0.275637 -432.955 -5.88257e-15)
(0.258393 -432.955 1.17283e-14)
(0.241973 -432.955 2.93382e-14)
(0.226355 -432.955 1.17353e-14)
(0.211517 -432.956 1.76001e-14)
(0.19744 -432.956 2.93489e-14)
(0.184098 -432.956 1.2475e-17)
(0.171471 -432.956 -4.69412e-14)
(0.159535 -432.956 -1.17353e-14)
(0.148266 -432.957 -2.34706e-14)
(0.13764 -432.957 -1.1739e-14)
(0.127634 -432.957 -3.45952e-18)
(0.118222 -432.957 -1.17369e-14)
(0.109382 -432.957 1.17353e-14)
(0.101089 -432.957 5.48005e-18)
(0.0933192 -432.957 -4.10724e-14)
(0.0860489 -432.957 -1.17377e-14)
(0.0792547 -432.958 -5.86767e-15)
(0.0729138 -432.958 -1.7608e-14)
(0.0670034 -432.958 3.52069e-14)
(0.0615016 -432.958 -2.34674e-14)
(0.0563866 -432.958 -1.76061e-14)
(0.0516374 -432.958 1.1736e-14)
(0.0472336 -432.958 -1.76005e-14)
(0.0431554 -432.958 -1.76036e-14)
(0.0393835 -432.958 -1.06749e-18)
(0.0358995 -432.958 -1.17349e-14)
(0.0326856 -432.958 -1.17345e-14)
(0.0297247 -432.958 -2.34707e-14)
(0.0270004 -432.958 -1.76034e-14)
(0.0244971 -432.958 -1.7603e-14)
(0.0221997 -432.958 -1.17351e-14)
(0.0200942 -432.958 -2.34707e-14)
(0.018167 -432.958 -1.7603e-14)
(0.0164052 -432.958 -2.34712e-14)
(0.0147968 -432.958 -2.34709e-14)
(0.0133303 -432.958 -1.76027e-14)
(0.0119949 -432.958 -1.76029e-14)
(0.0107806 -432.958 -1.76029e-14)
(0.00967762 -432.958 -2.34707e-14)
(0.0086772 -432.958 -1.7603e-14)
(0.00777095 -432.958 -1.17355e-14)
(0.00695105 -432.958 -1.76029e-14)
(0.00621025 -432.958 -2.34707e-14)
(0.00554178 -432.958 -1.76031e-14)
(0.00493935 -432.958 -1.17353e-14)
(0.00439715 -432.958 -2.34707e-14)
(0.00390979 -432.958 -2.93385e-14)
(0.00347227 -432.958 -1.17354e-14)
(0.00308002 -432.958 -1.76032e-14)
(0.00272881 -432.958 -5.86787e-15)
(0.00241474 -432.958 2.93385e-14)
(0.00213425 -432.958 -1.7603e-14)
(0.00188407 -432.958 2.66191e-30)
(0.00166122 -432.958 -2.93384e-14)
(0.00146296 -432.958 2.93384e-14)
(0.00128682 -432.958 -1.7603e-14)
(0.00113051 -432.958 -1.7603e-14)
(0.000991999 -432.958 -1.7603e-14)
(0.000869405 -432.958 -1.76031e-14)
(0.000761042 -432.958 2.93384e-14)
(0.000665381 -432.958 -2.93384e-14)
(0.000581041 -432.958 -1.76031e-14)
(0.000506779 -432.958 -1.76031e-14)
(0.000441473 -432.958 2.34707e-14)
(0.000384118 -432.958 -2.93384e-14)
(0.000333809 -432.958 -1.7603e-14)
(0.000289739 -432.958 -2.93384e-14)
(0.000251182 -432.958 -3.52061e-14)
(0.000217492 -432.958 -1.76031e-14)
(0.000188093 -432.958 2.34707e-14)
(0.000162471 -432.958 -1.7603e-14)
(0.000140169 -432.958 -1.7603e-14)
(0.000120781 -432.958 -2.93384e-14)
(0.000103949 -432.958 -2.34707e-14)
(8.93545e-05 -432.958 -2.34707e-14)
(7.67158e-05 -432.958 -2.34707e-14)
(6.57848e-05 -432.958 -2.34707e-14)
(5.63428e-05 -432.958 -2.34707e-14)
(4.81974e-05 -432.958 2.34707e-14)
(4.11795e-05 -432.958 -1.7603e-14)
(3.51409e-05 -432.958 -2.93384e-14)
(2.99512e-05 -432.958 -5.86768e-15)
(2.54969e-05 -432.958 -1.7603e-14)
(2.16789e-05 -432.958 -2.34707e-14)
(1.84103e-05 -432.958 3.52061e-14)
(1.56155e-05 -432.958 -1.17354e-14)
(1.32289e-05 -432.958 -2.34707e-14)
(1.11934e-05 -432.958 -1.17354e-14)
(9.45969e-06 -432.958 -2.93384e-14)
(7.98473e-06 -432.958 1.7603e-14)
(6.73136e-06 -432.958 1.33416e-29)
(5.66786e-06 -432.958 1.7603e-14)
(4.76671e-06 -432.958 -2.34707e-14)
(4.0041e-06 -432.958 -1.17354e-14)
(3.35933e-06 -432.958 -1.36583e-22)
(2.81498e-06 -432.958 2.34707e-14)
(2.35595e-06 -432.958 -2.34707e-14)
(1.96947e-06 -432.958 2.34707e-14)
(1.64447e-06 -432.958 -2.34707e-14)
(1.37138e-06 -432.958 1.7603e-14)
(1.14211e-06 -432.958 -2.34707e-14)
(9.50054e-07 -432.958 -1.17354e-14)
(7.89356e-07 -432.958 1.7603e-14)
(6.5496e-07 -432.958 2.34707e-14)
(5.42757e-07 -432.958 2.94223e-23)
(4.49343e-07 -432.958 -2.34707e-14)
(3.71581e-07 -432.958 -2.34707e-14)
(3.06866e-07 -432.958 -2.34707e-14)
(2.53028e-07 -432.958 -2.34707e-14)
(2.08222e-07 -432.958 -2.34707e-14)
(1.71446e-07 -432.958 -3.52061e-14)
(1.41117e-07 -432.958 -2.34707e-14)
(1.15656e-07 -432.958 -2.34707e-14)
(9.47252e-08 -432.958 -2.34707e-14)
(7.7729e-08 -432.958 -1.17354e-14)
(6.36258e-08 -432.958 -2.34707e-14)
(5.20073e-08 -432.958 -2.34707e-14)
(4.23664e-08 -432.958 -1.7603e-14)
(3.43575e-08 -432.958 -2.34707e-14)
(2.80778e-08 -432.958 -2.34707e-14)
(2.29872e-08 -432.958 -2.34707e-14)
(1.88305e-08 -432.958 -2.34707e-14)
(1.53493e-08 -432.958 -2.34707e-14)
(1.2546e-08 -432.958 -2.34707e-14)
(1.02678e-08 -432.958 -1.17354e-14)
(8.31275e-09 -432.958 -1.7603e-14)
(6.52221e-09 -432.958 -1.7603e-14)
(5.07545e-09 -432.958 -2.34707e-14)
(4.03591e-09 -432.958 -5.86768e-15)
(3.31499e-09 -432.958 -2.34707e-14)
(2.81537e-09 -432.958 -2.34707e-14)
(2.29331e-09 -432.958 -1.17354e-14)
(1.76217e-09 -432.958 1.17354e-14)
(1.4047e-09 -432.958 -2.34707e-14)
(9.723e-10 -432.958 -2.93384e-14)
(7.16551e-10 -432.958 -1.9258e-26)
(7.30213e-10 -432.958 1.17354e-14)
(6.04485e-10 -432.958 -3.52061e-14)
(5.15932e-10 -432.958 -2.93384e-14)
(4.66764e-10 -432.958 -1.17354e-14)
(2.23009e-10 -432.958 2.34707e-14)
(5.08819e-11 -432.958 -1.17354e-14)
(2.06581e-10 -432.958 -1.7603e-14)
(1.88485e-10 -432.958 -2.34707e-14)
(1.03291e-10 -432.958 2.34707e-14)
(1.42155e-10 -432.958 5.78561e-27)
(6.03198e-12 -432.958 -2.34707e-14)
(-9.56378e-11 -432.958 -3.52061e-14)
(-5.98504e-12 -432.958 -2.34707e-14)
(5.40531e-11 -432.958 -2.34707e-14)
(3.76249e-11 -432.958 -2.34707e-14)
(6.00851e-11 -432.958 -2.34707e-14)
(1.64429e-12 -432.958 -1.17354e-14)
(6.879e-11 -432.958 -1.53884e-27)
(1.0167e-10 -432.958 1.17354e-14)
(2.39461e-10 -432.958 -3.52061e-14)
(2.39367e-10 -432.958 -2.34707e-14)
(1.96185e-10 -432.958 -2.34707e-14)
(1.82571e-10 -432.958 -2.34707e-14)
(9.45153e-11 -432.958 -2.34707e-14)
(6.44962e-11 -432.958 -1.17354e-14)
(7.32246e-11 -432.958 -1.65904e-27)
(8.68625e-11 -432.958 1.17354e-14)
(1.79804e-10 -432.958 -2.34707e-14)
(2.27374e-10 -432.958 -5.86768e-15)
(3.02196e-10 -432.958 -3.52061e-14)
(9.12502e-11 -432.958 -2.95595e-27)
(1.15308e-10 -432.958 -2.34707e-14)
(2.79876e-10 -432.958 5.86768e-15)
(2.29018e-10 -432.958 -5.86768e-15)
(5.24323e-11 -432.958 1.17354e-14)
(-2.25729e-10 -432.958 -2.34707e-14)
(-1.31238e-10 -432.958 -2.34707e-14)
(-4.48499e-11 -432.958 -2.34707e-14)
(-3.44537e-11 -432.958 2.34707e-14)
(1.96698e-11 -432.958 -1.17354e-14)
(-1.2568e-10 -432.958 -2.34707e-14)
(-1.73297e-10 -432.958 -2.34707e-14)
(-1.9195e-11 -432.958 -2.34707e-14)
(1.34884e-10 -432.958 -1.17354e-14)
(-1.00072e-10 -432.958 1.17354e-14)
(-2.10899e-10 -432.958 -1.17354e-14)
(-1.02792e-10 -432.958 -1.17354e-14)
(-1.79353e-10 -432.958 2.34707e-14)
(-2.0334e-10 -432.958 5.86768e-15)
(-3.12568e-10 -432.958 5.86768e-15)
(-3.21391e-10 -432.958 -2.34707e-14)
(-4.79951e-10 -432.958 -2.34707e-14)
(-7.76162e-10 -432.958 -1.13102e-39)
(-1.02316e-09 -432.958 -2.34707e-14)
(-8.77831e-10 -432.958 -2.34707e-14)
(-1.04402e-09 -432.958 -3.52061e-14)
(-1.25935e-09 -432.958 1.7603e-14)
(-1.32819e-09 -432.958 -1.7603e-14)
(-1.70201e-09 -432.958 -2.22542e-26)
(-2.27484e-09 -432.958 -2.34707e-14)
(-2.89744e-09 -432.958 -2.34707e-14)
(-3.68562e-09 -432.958 -1.7603e-14)
(-4.9273e-09 -432.958 -5.86768e-15)
(-6.14949e-09 -432.958 -5.86768e-15)
(-7.4417e-09 -432.958 5.02237e-25)
(-9.42726e-09 -432.958 2.93384e-14)
(-1.16469e-08 -432.958 3.52061e-14)
(-1.42809e-08 -432.958 -1.7603e-14)
(-1.7828e-08 -432.958 1.17354e-14)
(-2.20087e-08 -432.958 1.17354e-14)
(-2.70903e-08 -432.958 -2.34707e-14)
(-3.33655e-08 -432.958 1.17354e-14)
(-4.09524e-08 -432.958 -1.17354e-14)
(-5.04081e-08 -432.958 1.17354e-14)
(-6.18965e-08 -432.958 -1.17354e-14)
(-7.58247e-08 -432.958 4.10738e-14)
(-9.27143e-08 -432.958 -2.34707e-14)
(-1.13359e-07 -432.958 -2.34707e-14)
(-1.38596e-07 -432.958 -2.34707e-14)
(-1.68786e-07 -432.958 -2.34707e-14)
(-2.05553e-07 -432.958 -2.34707e-14)
(-2.49852e-07 -432.958 -1.17354e-14)
(-3.03707e-07 -432.958 -2.34707e-14)
(-3.685e-07 -432.958 5.86768e-15)
(-4.46533e-07 -432.958 -1.17354e-14)
(-5.40765e-07 -432.958 -5.86768e-15)
(-6.54061e-07 -432.958 -5.86768e-15)
(-7.89873e-07 -432.958 -2.34707e-14)
(-9.5285e-07 -432.958 -2.34707e-14)
(-1.14781e-06 -432.958 5.86768e-15)
(-1.3814e-06 -432.958 -2.34707e-14)
(-1.6605e-06 -432.958 -1.17354e-14)
(-1.99329e-06 -432.958 -2.93384e-14)
(-2.39024e-06 -432.958 -2.34707e-14)
(-2.86232e-06 -432.958 -1.17354e-14)
(-3.4238e-06 -432.958 -4.64008e-23)
(-4.09021e-06 -432.958 -2.34707e-14)
(-4.88033e-06 -432.958 6.61401e-23)
(-5.81621e-06 -432.958 -1.17354e-14)
(-6.92301e-06 -432.958 -1.17354e-14)
(-8.23071e-06 -432.958 -2.34707e-14)
(-9.77357e-06 -432.958 -1.32456e-22)
(-1.15916e-05 -432.958 -1.17354e-14)
(-1.37311e-05 -432.958 -2.34707e-14)
(-1.62457e-05 -432.958 -2.34707e-14)
(-1.91973e-05 -432.958 -1.17354e-14)
(-2.26579e-05 -432.958 -2.34707e-14)
(-2.67098e-05 -432.958 5.86768e-15)
(-3.14482e-05 -432.958 -1.7603e-14)
(-3.69822e-05 -432.958 1.0024e-21)
(-4.34374e-05 -432.958 -1.17354e-14)
(-5.09573e-05 -432.958 2.34707e-14)
(-5.97064e-05 -432.958 -1.17354e-14)
(-6.98731e-05 -432.958 -9.46957e-22)
(-8.16717e-05 -432.958 -2.34707e-14)
(-9.53466e-05 -432.958 2.58437e-21)
(-0.000111176 -432.958 -5.86768e-15)
(-0.000129477 -432.958 -2.34707e-14)
(-0.000150608 -432.958 -1.17354e-14)
(-0.000174974 -432.958 -2.37134e-21)
(-0.000203037 -432.958 8.25499e-21)
(-0.000235315 -432.958 1.7603e-14)
(-0.000272394 -432.958 -2.34707e-14)
(-0.000314934 -432.958 1.76031e-14)
(-0.000363676 -432.958 -2.34707e-14)
(-0.000419453 -432.958 -5.68465e-21)
(-0.0004832 -432.958 -1.30972e-20)
(-0.000555962 -432.958 -2.54387e-30)
(-0.000638906 -432.958 1.17354e-14)
(-0.000733338 -432.958 -1.98772e-20)
(-0.000840709 -432.958 -1.7603e-14)
(-0.000962638 -432.958 5.86773e-15)
(-0.00110092 -432.958 -1.17354e-14)
(-0.00125754 -432.958 -1.17354e-14)
(-0.00143472 -432.958 -5.86766e-15)
(-0.00163488 -432.958 1.17353e-14)
(-0.00186072 -432.958 5.86773e-15)
(-0.00211521 -432.958 5.86771e-15)
(-0.00240161 -432.958 1.7603e-14)
(-0.00272351 -432.958 1.7603e-14)
(-0.00308484 -432.958 -1.76031e-14)
(-0.00348991 -432.958 -1.17354e-14)
(-0.00394342 -432.958 -1.17353e-14)
(-0.00445053 -432.958 6.03159e-20)
(-0.00501682 -432.958 -5.86768e-15)
(-0.0056484 -432.958 -5.86783e-15)
(-0.00635187 -432.958 -5.86777e-15)
(-0.0071344 -432.958 5.86787e-15)
(-0.00800376 -432.958 5.86768e-15)
(-0.00896834 -432.958 -5.8678e-15)
(-0.0100372 -432.958 -1.17352e-14)
(-0.01122 -432.958 -5.86738e-15)
(-0.0125273 -432.958 -1.17355e-14)
(-0.0139702 -432.958 5.86768e-15)
(-0.0155609 -432.958 -1.17349e-14)
(-0.017312 -432.958 2.347e-14)
(-0.0192375 -432.958 -2.34705e-14)
(-0.0213517 -432.958 2.34713e-14)
(-0.0236703 -432.958 -9.62375e-19)
(-0.0262096 -432.958 5.86768e-15)
(-0.0289871 -432.958 1.17357e-14)
(-0.0320211 -432.958 -5.86855e-15)
(-0.0353311 -432.958 -5.86672e-15)
(-0.0389375 -432.958 1.7603e-14)
(-0.0428615 -432.958 -1.17371e-14)
(-0.0471258 -432.958 5.86959e-15)
(-0.0517537 -432.958 1.17368e-14)
(-0.0567696 -432.958 1.76015e-14)
(-0.0621991 -432.958 -1.17362e-14)
(-0.0680685 -432.958 -2.03259e-30)
(-0.0744051 -432.958 -5.86465e-15)
(-0.0812372 -432.958 2.3474e-14)
(-0.088594 -432.958 -1.17377e-14)
(-0.0965051 -432.957 5.86636e-15)
(-0.105001 -432.957 -4.2691e-18)
(-0.114114 -432.957 -1.17338e-14)
(-0.123875 -432.957 1.76047e-14)
(-0.134316 -432.957 -3.64065e-18)
(-0.145471 -432.957 -1.7603e-14)
(-0.157371 -432.957 5.87192e-15)
(-0.170051 -432.956 -1.76007e-14)
(-0.183543 -432.956 5.86268e-15)
(-0.19788 -432.956 -3.52059e-14)
(-0.213094 -432.956 0)
(-0.229218 -432.956 -3.52059e-14)
(-0.246284 -432.955 0)
(-0.26432 -432.955 1.22894e-29)
(-0.283358 -432.955 3.84021e-18)
(-0.303424 -432.954 -1.17353e-14)
(-0.324545 -432.954 -1.17484e-14)
(-0.346746 -432.954 -1.76029e-14)
(-0.370049 -432.953 1.17302e-14)
(-0.394475 -432.953 -4.10786e-14)
(-0.420039 -432.953 5.89037e-15)
(-0.446757 -432.952 -2.34764e-14)
(-0.47464 -432.952 -2.34897e-14)
(-0.503693 -432.951 -2.34499e-14)
(-0.53392 -432.951 -1.17207e-14)
(-0.565318 -432.95 -5.89055e-15)
(-0.597879 -432.95 -2.34783e-14)
(-0.631588 -432.949 -3.52053e-14)
(-0.666425 -432.948 -2.34611e-14)
(-0.702361 -432.948 -5.86753e-15)
(-0.739358 -432.947 -1.17451e-14)
(-0.777368 -432.946 -2.9327e-14)
(-0.816329 -432.946 -5.84538e-15)
(-0.856168 -432.945 -5.8791e-15)
(-0.896793 -432.944 -5.85533e-15)
(-0.938092 -432.943 -1.75643e-14)
(-0.979929 -432.943 5.85419e-15)
(-1.02213 -432.942 -4.15575e-17)
(-1.0645 -432.941 -1.17638e-14)
(-1.10677 -432.941 -1.76023e-14)
(-1.14862 -432.94 -2.34386e-14)
(-1.18963 -432.94 3.22451e-17)
(-1.22926 -432.94 -2.34864e-14)
(-1.26679 -432.94 -1.7568e-14)
(-1.30122 -432.941 2.34698e-14)
(-1.33115 -432.943 -1.76746e-14)
(-1.35454 -432.946 -5.86751e-15)
(-1.36824 -432.95 -3.51869e-14)
(-1.36714 -432.958 -1.17168e-14)
(-1.34245 -432.971 -1.79843e-30)
(-1.27834 -432.995 -2.35074e-14)
(-1.14623 -433.036 -3.51814e-14)
(-0.901621 -433.102 5.88184e-15)
(-0.516682 -433.151 -5.87029e-15)
(-0.144357 -432.934 2.34713e-14)
(0.0481906 -1299.76 5.28495e-14)
(0.831487 -1299.75 3.52297e-14)
(1.51641 -1299.81 3.51904e-14)
(1.42667 -1299.85 3.52131e-14)
(1.35396 -1299.87 -1.76715e-14)
(1.29068 -1299.88 1.76167e-14)
(1.23243 -1299.89 5.01076e-17)
(1.1778 -1299.9 3.52339e-14)
(1.12608 -1299.91 -1.76018e-14)
(1.07682 -1299.91 1.45936e-17)
(1.0297 -1299.92 -1.3955e-17)
(0.984495 -1299.92 -1.76173e-14)
(0.941033 -1299.93 3.7752e-30)
(0.899176 -1299.93 3.52226e-14)
(0.858815 -1299.94 2.32782e-17)
(0.819862 -1299.94 1.76397e-14)
(0.782245 -1299.95 -1.76281e-14)
(0.745902 -1299.95 3.51947e-14)
(0.710782 -1299.95 -1.76465e-14)
(0.676845 -1299.95 -5.28347e-14)
(0.644053 -1299.96 -1.76002e-14)
(0.612376 -1299.96 -8.29924e-18)
(0.581787 -1299.96 -7.88469e-18)
(0.552265 -1299.96 -1.76028e-14)
(0.523789 -1299.97 -1.75965e-14)
(0.496339 -1299.97 1.76246e-14)
(0.4699 -1299.97 0)
(0.444455 -1299.97 -1.76179e-14)
(0.419989 -1299.97 -5.28651e-14)
(0.396486 -1299.97 5.28377e-14)
(0.373931 -1299.98 -5.28539e-14)
(0.352307 -1299.98 -1.76036e-14)
(0.331599 -1299.98 -1.7609e-14)
(0.311789 -1299.98 0)
(0.29286 -1299.98 -1.76379e-14)
(0.274793 -1299.98 1.76106e-14)
(0.25757 -1299.98 -7.04722e-14)
(0.24117 -1299.98 -1.76181e-14)
(0.225573 -1299.98 -7.04661e-14)
(0.210758 -1299.98 -3.52419e-14)
(0.196702 -1299.99 -5.28569e-14)
(0.183384 -1299.99 3.52461e-14)
(0.17078 -1299.99 4.62901e-18)
(0.158868 -1299.99 1.76181e-14)
(0.147623 -1299.99 -7.55739e-30)
(0.137021 -1299.99 3.52325e-14)
(0.127039 -1299.99 3.44339e-18)
(0.117651 -1299.99 -3.52379e-14)
(0.108835 -1299.99 -1.76211e-14)
(0.100566 -1299.99 1.36292e-18)
(0.0928199 -1299.99 5.28557e-14)
(0.0855729 -1299.99 1.76182e-14)
(0.0788018 -1299.99 1.76192e-14)
(0.0724835 -1299.99 -1.76201e-14)
(0.0665953 -1299.99 -7.04726e-14)
(0.061115 -1299.99 -1.7614e-14)
(0.0560211 -1299.99 -3.52379e-14)
(0.0512924 -1299.99 -3.52398e-14)
(0.0469085 -1299.99 1.76188e-14)
(0.0428494 -1299.99 1.16144e-18)
(0.039096 -1299.99 5.2985e-19)
(0.0356298 -1299.99 -3.52359e-14)
(0.032433 -1299.99 -7.65896e-30)
(0.0294885 -1299.99 -1.76178e-14)
(0.0267798 -1299.99 -3.52364e-14)
(0.0242914 -1299.99 -3.52367e-14)
(0.0220083 -1299.99 1.66155e-32)
(0.0199163 -1299.99 -1.76179e-14)
(0.0180018 -1299.99 -3.52364e-14)
(0.0162522 -1299.99 -1.76184e-14)
(0.0146552 -1299.99 -2.00378e-29)
(0.0131995 -1299.99 -1.7618e-14)
(0.0118743 -1299.99 -1.76183e-14)
(0.0106694 -1299.99 3.52364e-14)
(0.00957537 -1299.99 3.82936e-30)
(0.00858329 -1299.99 -2.32651e-19)
(0.00768482 -1299.99 1.76183e-14)
(0.00687218 -1299.99 -1.76181e-14)
(0.00613813 -1299.99 3.52364e-14)
(0.00547593 -1299.99 -3.52365e-14)
(0.00487932 -1299.99 1.76182e-14)
(0.0043425 -1299.99 1.76555e-19)
(0.0038601 -1299.99 -5.23141e-20)
(0.00342717 -1299.99 -9.28936e-20)
(0.00303914 -1299.99 1.76181e-14)
(0.0026918 -1299.99 -3.52365e-14)
(0.00238128 -1299.99 -5.28545e-14)
(0.00210405 -1299.99 1.76183e-14)
(0.00185686 -1299.99 -3.52363e-14)
(0.00163672 -1299.99 1.76181e-14)
(0.00144095 -1299.99 1.76182e-14)
(0.00126706 -1299.99 6.86873e-20)
(0.00111281 -1299.99 1.00146e-29)
(0.00097615 -1299.99 -1.76182e-14)
(0.000855241 -1299.99 1.76181e-14)
(0.000748401 -1299.99 1.76182e-14)
(0.000654115 -1299.99 5.28546e-14)
(0.000571014 -1299.99 1.00147e-29)
(0.000497867 -1299.99 1.76182e-14)
(0.000433564 -1299.99 1.76182e-14)
(0.000377108 -1299.99 1.53323e-20)
(0.000327605 -1299.99 1.76182e-14)
(0.000284255 -1299.99 1.15571e-20)
(0.000246342 -1299.99 -6.67712e-21)
(0.000213227 -1299.99 1.76182e-14)
(0.000184339 -1299.99 -5.28546e-14)
(0.000159171 -1299.99 -1.76182e-14)
(0.000137272 -1299.99 3.52364e-14)
(0.000118242 -1299.99 1.76182e-14)
(0.000101726 -1299.99 -1.76182e-14)
(8.74113e-05 -1299.99 -1.76182e-14)
(7.50193e-05 -1299.99 -1.76182e-14)
(6.43058e-05 -1299.99 -1.76182e-14)
(5.50552e-05 -1299.99 5.28546e-14)
(4.70777e-05 -1299.99 -5.28546e-14)
(4.02074e-05 -1299.99 -1.76182e-14)
(3.4298e-05 -1299.99 3.52364e-14)
(2.92213e-05 -1299.99 8.01181e-30)
(2.48657e-05 -1299.99 -3.52364e-14)
(2.11337e-05 -1299.99 -1.43208e-21)
(1.79401e-05 -1299.99 -1.76182e-14)
(1.52105e-05 -1299.99 1.76182e-14)
(1.28805e-05 -1299.99 -1.52813e-29)
(1.08943e-05 -1299.99 1.76182e-14)
(9.20306e-06 -1299.99 -1.24725e-22)
(7.76475e-06 -1299.99 -1.76182e-14)
(6.54326e-06 -1299.99 -8.8091e-14)
(5.50724e-06 -1299.99 -1.76182e-14)
(4.62955e-06 -1299.99 -1.76182e-14)
(3.88709e-06 -1299.99 -1.76182e-14)
(3.25982e-06 -1299.99 -7.04728e-14)
(2.7304e-06 -1299.99 -1.76182e-14)
(2.28423e-06 -1299.99 -1.76182e-14)
(1.90856e-06 -1299.99 -1.76182e-14)
(1.59282e-06 -1299.99 -1.76182e-14)
(1.32779e-06 -1299.99 -1.76182e-14)
(1.10543e-06 -1299.99 -1.76182e-14)
(9.1906e-07 -1299.99 -1.76182e-14)
(7.63259e-07 -1299.99 -1.76182e-14)
(6.33071e-07 -1299.99 -1.76182e-14)
(5.24302e-07 -1299.99 7.04728e-14)
(4.33823e-07 -1299.99 -1.76182e-14)
(3.58562e-07 -1299.99 -1.76182e-14)
(2.95915e-07 -1299.99 -1.76182e-14)
(2.43938e-07 -1299.99 5.28546e-14)
(2.00811e-07 -1299.99 -1.76182e-14)
(1.65221e-07 -1299.99 3.82034e-30)
(1.35724e-07 -1299.99 -1.76182e-14)
(1.1118e-07 -1299.99 -1.76182e-14)
(9.10914e-08 -1299.99 -1.76182e-14)
(7.46924e-08 -1299.99 -1.76182e-14)
(6.10843e-08 -1299.99 -1.76182e-14)
(4.9874e-08 -1299.99 -6.76161e-25)
(4.06895e-08 -1299.99 3.52364e-14)
(3.31173e-08 -1299.99 -1.76182e-14)
(2.69948e-08 -1299.99 -1.76182e-14)
(2.20044e-08 -1299.99 -1.76182e-14)
(1.79444e-08 -1299.99 -3.52364e-14)
(1.4706e-08 -1299.99 -1.76182e-14)
(1.19311e-08 -1299.99 -1.76182e-14)
(9.65139e-09 -1299.99 -1.76182e-14)
(7.8551e-09 -1299.99 -3.52364e-14)
(6.2752e-09 -1299.99 -8.47863e-26)
(4.89425e-09 -1299.99 1.76182e-14)
(3.88792e-09 -1299.99 -3.52364e-14)
(3.16081e-09 -1299.99 -1.76182e-14)
(2.62508e-09 -1299.99 -1.76182e-14)
(2.10892e-09 -1299.99 -5.28546e-14)
(1.58562e-09 -1299.99 -1.76182e-14)
(1.25684e-09 -1299.99 -1.76182e-14)
(8.46512e-10 -1299.99 -3.52364e-14)
(6.98406e-10 -1299.99 1.76182e-14)
(6.58129e-10 -1299.99 -3.52364e-14)
(5.17871e-10 -1299.99 1.76182e-14)
(5.29726e-10 -1299.99 -3.52364e-14)
(4.76748e-10 -1299.99 -7.04728e-14)
(2.78078e-10 -1299.99 -5.28546e-14)
(5.72663e-11 -1299.99 -5.28546e-14)
(1.19826e-10 -1299.99 3.52364e-14)
(1.81962e-10 -1299.99 -1.76182e-14)
(1.01832e-10 -1299.99 -2.86012e-27)
(1.02255e-10 -1299.99 -5.28546e-14)
(9.11222e-11 -1299.99 -1.76182e-14)
(-7.34101e-11 -1299.99 3.82034e-30)
(-1.01691e-10 -1299.99 1.37817e-27)
(1.65667e-11 -1299.99 0)
(1.04278e-11 -1299.99 -1.76182e-14)
(-2.81891e-13 -1299.99 -1.76182e-14)
(-7.91262e-11 -1299.99 -1.76182e-14)
(-5.24136e-11 -1299.99 -3.52364e-14)
(6.71302e-11 -1299.99 -1.76182e-14)
(2.21658e-10 -1299.99 9.74557e-27)
(2.49797e-10 -1299.99 -1.76182e-14)
(1.54105e-10 -1299.99 -3.52364e-14)
(1.36111e-10 -1299.99 -1.76182e-14)
(1.86674e-10 -1299.99 -3.52364e-14)
(1.93095e-10 -1299.99 -1.76182e-14)
(1.07407e-10 -1299.99 -1.76182e-14)
(5.85704e-12 -1299.99 -3.52364e-14)
(1.08506e-11 -1299.99 -1.76182e-14)
(1.48107e-10 -1299.99 -5.28546e-14)
(1.86956e-10 -1299.99 2.53373e-27)
(6.27005e-11 -1299.99 -8.8091e-14)
(4.61338e-11 -1299.99 3.52364e-14)
(2.03664e-10 -1299.99 -3.40503e-29)
(1.24115e-10 -1299.99 -3.52364e-14)
(-8.69743e-11 -1299.99 -1.76182e-14)
(-5.05635e-11 -1299.99 -1.76182e-14)
(-1.13687e-10 -1299.99 -1.76182e-14)
(-1.48247e-10 -1299.99 -3.52364e-14)
(-4.06996e-11 -1299.99 1.76182e-14)
(-5.82707e-11 -1299.99 -1.76182e-14)
(-6.69893e-11 -1299.99 -3.52364e-14)
(-1.7053e-10 -1299.99 -3.52364e-14)
(-1.19685e-10 -1299.99 -3.52364e-14)
(4.45656e-11 -1299.99 -5.28546e-14)
(-9.28313e-11 -1299.99 -1.76182e-14)
(-1.80676e-10 -1299.99 -5.28546e-14)
(-2.1123e-10 -1299.99 -3.52364e-14)
(-2.17228e-10 -1299.99 3.52364e-14)
(-2.61371e-10 -1299.99 -9.89402e-27)
(-3.57204e-10 -1299.99 1.76182e-14)
(-5.01304e-10 -1299.99 -1.76182e-14)
(-5.23869e-10 -1299.99 -1.76182e-14)
(-6.94117e-10 -1299.99 -3.05627e-29)
(-9.25779e-10 -1299.99 -1.76182e-14)
(-8.58649e-10 -1299.99 -1.13962e-26)
(-9.78475e-10 -1299.99 6.38189e-26)
(-1.23427e-09 -1299.99 3.52364e-14)
(-1.39395e-09 -1299.99 -1.76182e-14)
(-1.76786e-09 -1299.99 -5.28546e-14)
(-2.18847e-09 -1299.99 -3.52364e-14)
(-2.75119e-09 -1299.99 -1.76182e-14)
(-3.65012e-09 -1299.99 3.52364e-14)
(-4.68501e-09 -1299.99 3.52364e-14)
(-5.86544e-09 -1299.99 1.76182e-14)
(-7.2958e-09 -1299.99 3.52364e-14)
(-8.93641e-09 -1299.99 -7.04728e-14)
(-1.10798e-08 -1299.99 -3.52364e-14)
(-1.37681e-08 -1299.99 -1.76182e-14)
(-1.70757e-08 -1299.99 -3.52364e-14)
(-2.1117e-08 -1299.99 -1.76182e-14)
(-2.60239e-08 -1299.99 -1.76182e-14)
(-3.20717e-08 -1299.99 -1.76182e-14)
(-3.94209e-08 -1299.99 -1.76182e-14)
(-4.83633e-08 -1299.99 -1.76182e-14)
(-5.92981e-08 -1299.99 -7.04728e-14)
(-7.27536e-08 -1299.99 -3.52364e-14)
(-8.92215e-08 -1299.99 -1.76182e-14)
(-1.0909e-07 -1299.99 -1.76182e-14)
(-1.3316e-07 -1299.99 -1.76182e-14)
(-1.62527e-07 -1299.99 -3.52364e-14)
(-1.97945e-07 -1299.99 -7.04728e-14)
(-2.40914e-07 -1299.99 1.76182e-14)
(-2.92727e-07 -1299.99 -3.52364e-14)
(-3.55203e-07 -1299.99 -1.76182e-14)
(-4.30821e-07 -1299.99 -5.28546e-14)
(-5.21953e-07 -1299.99 1.41486e-23)
(-6.31497e-07 -1299.99 -1.71167e-23)
(-7.63228e-07 -1299.99 -3.52364e-14)
(-9.21079e-07 -1299.99 -1.76182e-14)
(-1.11008e-06 -1299.99 -1.76182e-14)
(-1.33641e-06 -1299.99 -3.52364e-14)
(-1.60715e-06 -1299.99 -5.28546e-14)
(-1.93039e-06 -1299.99 1.76182e-14)
(-2.31553e-06 -1299.99 -7.04728e-14)
(-2.7742e-06 -1299.99 -1.76182e-14)
(-3.31974e-06 -1299.99 -5.28546e-14)
(-3.96753e-06 -1299.99 -1.76182e-14)
(-4.73597e-06 -1299.99 -3.52364e-14)
(-5.64656e-06 -1299.99 -1.76182e-14)
(-6.72424e-06 -1299.99 -1.76182e-14)
(-7.9978e-06 -1299.99 -7.04728e-14)
(-9.50085e-06 -1299.99 1.76182e-14)
(-1.1273e-05 -1299.99 -1.76182e-14)
(-1.33592e-05 -1299.99 -7.04728e-14)
(-1.58121e-05 -1299.99 -1.76182e-14)
(-1.86928e-05 -1299.99 1.76182e-14)
(-2.20713e-05 -1299.99 -7.04728e-14)
(-2.60288e-05 -1299.99 -1.76182e-14)
(-3.06586e-05 -1299.99 3.52364e-14)
(-3.60682e-05 -1299.99 -4.88815e-22)
(-4.23805e-05 -1299.99 -1.76182e-14)
(-4.97369e-05 -1299.99 -1.76182e-14)
(-5.82993e-05 -1299.99 -1.76182e-14)
(-6.82527e-05 -1299.99 1.76182e-14)
(-7.98081e-05 -1299.99 -1.76182e-14)
(-9.32066e-05 -1299.99 1.26318e-21)
(-0.000108722 -1299.99 -3.52364e-14)
(-0.000126666 -1299.99 -1.76182e-14)
(-0.000147392 -1299.99 -5.28546e-14)
(-0.000171302 -1299.99 -1.76182e-14)
(-0.000198848 -1299.99 -1.76182e-14)
(-0.000230543 -1299.99 -5.28546e-14)
(-0.000266965 -1299.99 3.61805e-21)
(-0.000308767 -1299.99 -3.52364e-14)
(-0.00035668 -1299.99 -7.04728e-14)
(-0.000411528 -1299.99 -7.04727e-14)
(-0.000474234 -1299.99 3.52364e-14)
(-0.000545832 -1299.99 1.47948e-20)
(-0.000627479 -1299.99 1.76182e-14)
(-0.000720463 -1299.99 1.76182e-14)
(-0.000826225 -1299.99 3.52364e-14)
(-0.000946365 -1299.99 -5.28546e-14)
(-0.00108266 -1299.99 -7.04728e-14)
(-0.00123709 -1299.99 -1.76182e-14)
(-0.00141183 -1299.99 -5.28545e-14)
(-0.00160931 -1299.99 3.52364e-14)
(-0.0018322 -1299.99 3.52363e-14)
(-0.00208343 -1299.99 -5.28545e-14)
(-0.00236626 -1299.99 1.76183e-14)
(-0.00268423 -1299.99 3.52362e-14)
(-0.00304127 -1299.99 -3.52365e-14)
(-0.00344164 -1299.99 -1.76181e-14)
(-0.00389003 -1299.99 -1.76181e-14)
(-0.00439155 -1299.99 -1.14379e-29)
(-0.00495177 -1299.99 -3.52364e-14)
(-0.00557674 -1299.99 -1.7618e-14)
(-0.00627305 -1299.99 5.28548e-14)
(-0.00704784 -1299.99 5.28546e-14)
(-0.00790884 -1299.99 1.7618e-14)
(-0.00886439 -1299.99 -1.76184e-14)
(-0.00992351 -1299.99 -1.76183e-14)
(-0.0110959 -1299.99 -3.00755e-19)
(-0.012392 -1299.99 -7.04722e-14)
(-0.0138229 -1299.99 5.28546e-14)
(-0.0154007 -1299.99 -7.04725e-14)
(-0.0171382 -1299.99 2.32266e-19)
(-0.0190491 -1299.99 -1.76184e-14)
(-0.0211478 -1299.99 -1.76176e-14)
(-0.0234499 -1299.99 -3.52364e-14)
(-0.0259719 -1299.99 1.76189e-14)
(-0.028731 -1299.99 -1.16813e-18)
(-0.0317457 -1299.99 -3.52368e-14)
(-0.0350353 -1299.99 5.28555e-14)
(-0.0386202 -1299.99 -3.52369e-14)
(-0.0425219 -1299.99 1.76187e-14)
(-0.0467627 -1299.99 5.28551e-14)
(-0.0513661 -1299.99 -3.52363e-14)
(-0.0563567 -1299.99 -1.52755e-18)
(-0.0617597 -1299.99 -1.76198e-14)
(-0.0676017 -1299.99 9.16174e-19)
(-0.0739101 -1299.99 3.00501e-18)
(-0.0807132 -1299.99 -1.76182e-14)
(-0.08804 -1299.99 -3.52399e-14)
(-0.0959205 -1299.99 -1.76168e-14)
(-0.104386 -1299.99 7.16942e-30)
(-0.113466 -1299.99 3.52424e-14)
(-0.123195 -1299.99 1.6696e-18)
(-0.133603 -1299.99 3.52254e-14)
(-0.144725 -1299.99 -1.76162e-14)
(-0.156592 -1299.99 7.03406e-29)
(-0.169239 -1299.99 -5.28566e-14)
(-0.182698 -1299.99 -7.42805e-18)
(-0.197002 -1299.99 -7.0475e-14)
(-0.212185 -1299.99 5.75128e-18)
(-0.228277 -1299.98 -5.28542e-14)
(-0.245312 -1299.98 -1.76048e-14)
(-0.263319 -1299.98 1.76181e-14)
(-0.282329 -1299.98 -1.76219e-14)
(-0.302368 -1299.98 -1.76262e-14)
(-0.323465 -1299.98 -5.2854e-14)
(-0.345643 -1299.98 3.52547e-14)
(-0.368926 -1299.98 -4.99988e-18)
(-0.393334 -1299.98 3.52359e-14)
(-0.418885 -1299.98 5.28368e-14)
(-0.445592 -1299.97 -7.04959e-14)
(-0.473468 -1299.97 3.20834e-17)
(-0.502518 -1299.97 1.76111e-14)
(-0.532748 -1299.97 -7.04787e-14)
(-0.564153 -1299.97 -1.76102e-14)
(-0.596728 -1299.97 -1.61743e-17)
(-0.630458 -1299.96 -1.76178e-14)
(-0.665325 -1299.96 -1.75997e-14)
(-0.701298 -1299.96 -1.75987e-14)
(-0.738344 -1299.96 -1.76277e-14)
(-0.776413 -1299.96 2.02796e-29)
(-0.815449 -1299.95 3.03684e-29)
(-0.85538 -1299.95 -5.28413e-14)
(-0.896117 -1299.95 -1.21446e-17)
(-0.937553 -1299.95 -5.28654e-14)
(-0.979557 -1299.95 -1.7591e-14)
(-1.02197 -1299.94 -3.5235e-14)
(-1.0646 -1299.94 1.76319e-14)
(-1.10719 -1299.94 3.52049e-14)
(-1.14946 -1299.94 -1.7633e-14)
(-1.19102 -1299.94 -3.52672e-14)
(-1.23137 -1299.94 -3.52349e-14)
(-1.26989 -1299.94 -1.75142e-14)
(-1.30571 -1299.94 -1.76529e-14)
(-1.33771 -1299.95 -3.52532e-14)
(-1.36426 -1299.95 3.52168e-14)
(-1.38307 -1299.97 -5.28909e-14)
(-1.39077 -1299.99 -1.75616e-14)
(-1.3819 -1300.02 -1.7656e-14)
(-1.34598 -1300.08 -1.76559e-14)
(-1.25539 -1300.19 -1.75698e-14)
(-1.01811 -1300.38 -1.75959e-14)
(-0.349516 -1300.65 -1.76129e-14)
(0.0729441 -1300.48 1.76268e-14)
(0.0166123 -2172.32 1.57597e-18)
(0.77282 -2172.37 5.88821e-14)
(1.47346 -2172.42 5.88436e-14)
(1.40115 -2172.46 2.94423e-14)
(1.33794 -2172.48 5.8849e-14)
(1.27978 -2172.5 -5.20328e-17)
(1.22442 -2172.52 2.94763e-14)
(1.17152 -2172.53 5.89501e-14)
(1.12089 -2172.54 1.51909e-17)
(1.07235 -2172.55 -1.45331e-17)
(1.02575 -2172.56 0)
(0.980927 -2172.57 1.676e-29)
(0.937756 -2172.58 -1.2709e-17)
(0.896129 -2172.59 -2.94562e-14)
(0.855953 -2172.6 1.16003e-17)
(0.817152 -2172.6 8.83659e-14)
(0.77966 -2172.61 2.94021e-14)
(0.743422 -2172.61 8.8313e-14)
(0.708391 -2172.62 -2.94061e-14)
(0.674527 -2172.62 -2.94445e-14)
(0.641798 -2172.63 -2.9462e-14)
(0.610176 -2172.63 2.94364e-14)
(0.579635 -2172.63 1.5711e-17)
(0.550155 -2172.64 7.45599e-18)
(0.521717 -2172.64 0)
(0.494303 -2172.64 5.88963e-14)
(0.467897 -2172.65 5.89024e-14)
(0.442485 -2172.65 5.88958e-14)
(0.41805 -2172.65 5.88672e-14)
(0.394579 -2172.66 2.94343e-14)
(0.372057 -2172.66 -5.88799e-14)
(0.350467 -2172.66 9.49941e-18)
(0.329793 -2172.66 8.83396e-14)
(0.310019 -2172.66 2.94451e-14)
(0.291127 -2172.66 5.88784e-14)
(0.2731 -2172.67 -5.88939e-14)
(0.255917 -2172.67 -1.06976e-28)
(0.239558 -2172.67 -8.83355e-14)
(0.224005 -2172.67 3.03583e-18)
(0.209234 -2172.67 -2.94509e-14)
(0.195223 -2172.67 -2.94452e-14)
(0.181952 -2172.67 -8.83307e-14)