/*--------------------------------*- C++ -*----------------------------------*\
| =========                 |                                                 |
| \\      /  F ield         | foam-extend: Open Source CFD                    |
|  \\    /   O peration     | Version:     4.0                                |
|   \\  /    A nd           | Web:         http://www.foam-extend.org         |
|    \\/     M anipulation  |                                                 |
\*---------------------------------------------------------------------------*/
FoamFile
{
    version     2.0;
    format      ascii;
    class       volScalarField;
    location    "0";
    object      resT;
}
// * * * * * * * * * * * * * * * * * * * * * * * * * * * * * * * * * * * * * //

dimensions      [0 0 0 1 0 0 0];

internalField   nonuniform List<scalar> 
8000
(
-48.4726
-48.4725
-48.4722
-48.4718
-48.4715
-48.4711
-48.4708
-48.4705
-48.4702
-48.4699
-48.4697
-48.4694
-48.4692
-48.469
-48.4687
-48.4685
-48.4683
-48.4681
-48.4679
-48.4678
-48.4676
-48.4674
-48.4673
-48.4672
-48.467
-48.4669
-48.4668
-48.4667
-48.4666
-48.4664
-48.4664
-48.4663
-48.4662
-48.4661
-48.466
-48.4659
-48.4659
-48.4658
-48.4658
-48.4657
-48.4657
-48.4656
-48.4656
-48.4655
-48.4655
-48.4654
-48.4654
-48.4654
-48.4654
-48.4653
-48.4653
-48.4653
-48.4653
-48.4652
-48.4652
-48.4652
-48.4652
-48.4652
-48.4652
-48.4652
-48.4651
-48.4651
-48.4651
-48.4651
-48.4651
-48.4651
-48.4651
-48.4651
-48.4651
-48.4651
-48.4651
-48.4651
-48.4651
-48.4651
-48.4651
-48.4651
-48.4651
-48.4651
-48.4651
-48.4651
-48.4651
-48.4651
-48.4651
-48.4651
-48.4651
-48.4651
-48.4651
-48.4651
-48.4651
-48.4651
-48.4651
-48.4651
-48.4651
-48.4651
-48.4651
-48.4651
-48.4651
-48.4651
-48.4651
-48.4651
-48.4651
-48.4651
-48.4651
-48.4651
-48.4651
-48.4651
-48.4651
-48.4651
-48.4651
-48.4651
-48.4651
-48.4651
-48.4651
-48.4651
-48.4651
-48.4651
-48.4651
-48.4651
-48.4651
-48.4651
-48.4651
-48.4651
-48.4651
-48.4651
-48.4651
-48.4651
-48.4651
-48.4651
-48.4651
-48.4651
-48.4651
-48.4651
-48.4651
-48.4651
-48.4651
-48.4651
-48.4651
-48.4651
-48.4651
-48.4651
-48.4651
-48.4651
-48.4651
-48.4651
-48.4651
-48.4651
-48.4651
-48.4651
-48.4651
-48.4651
-48.4651
-48.4651
-48.4651
-48.4651
-48.4651
-48.4651
-48.4651
-48.4651
-48.4651
-48.4651
-48.4651
-48.4651
-48.4651
-48.4651
-48.4651
-48.4651
-48.4651
-48.4651
-48.4651
-48.4651
-48.4651
-48.4651
-48.4651
-48.4651
-48.4651
-48.4651
-48.4651
-48.4651
-48.4651
-48.4651
-48.4651
-48.4651
-48.4651
-48.4651
-48.4651
-48.4651
-48.4651
-48.4651
-48.4651
-48.4651
-48.4651
-48.4651
-48.4651
-48.4651
-48.4651
-48.4651
-48.4651
-48.4651
-48.4651
-48.4651
-48.4651
-48.4651
-48.4651
-48.4651
-48.4651
-48.4651
-48.4651
-48.4651
-48.4651
-48.4651
-48.4651
-48.4651
-48.4651
-48.4651
-48.4651
-48.4651
-48.4651
-48.4651
-48.4651
-48.4651
-48.4651
-48.4651
-48.4651
-48.4651
-48.4651
-48.4651
-48.4651
-48.4651
-48.4651
-48.4651
-48.4651
-48.4651
-48.4651
-48.4651
-48.4651
-48.4651
-48.4651
-48.4651
-48.4651
-48.4651
-48.4651
-48.4651
-48.4651
-48.4651
-48.4651
-48.4651
-48.4651
-48.4651
-48.4651
-48.4651
-48.4651
-48.4651
-48.4651
-48.4651
-48.4651
-48.4651
-48.4651
-48.4651
-48.4651
-48.4651
-48.4651
-48.4651
-48.4651
-48.465
-48.465
-48.465
-48.465
-48.465
-48.465
-48.465
-48.465
-48.465
-48.465
-48.465
-48.465
-48.465
-48.465
-48.465
-48.465
-48.465
-48.465
-48.465
-48.465
-48.465
-48.465
-48.465
-48.465
-48.465
-48.465
-48.465
-48.465
-48.465
-48.465
-48.465
-48.465
-48.465
-48.465
-48.465
-48.465
-48.465
-48.465
-48.465
-48.465
-48.465
-48.465
-48.465
-48.465
-48.465
-48.465
-48.465
-48.465
-48.465
-48.465
-48.465
-48.465
-48.465
-48.465
-48.465
-48.465
-48.465
-48.465
-48.465
-48.465
-48.465
-48.465
-48.465
-48.465
-48.465
-48.465
-48.465
-48.465
-48.465
-48.465
-48.465
-48.465
-48.465
-48.4649
-48.4649
-48.4649
-48.4649
-48.4649
-48.4649
-48.4649
-48.4648
-48.4648
-48.4648
-48.4648
-48.4647
-48.4647
-48.4647
-48.4646
-48.4646
-48.4646
-48.4645
-48.4645
-48.4644
-48.4644
-48.4643
-48.4642
-48.4642
-48.4641
-48.464
-48.4639
-48.4639
-48.4638
-48.4637
-48.4635
-48.4634
-48.4633
-48.4632
-48.463
-48.4629
-48.4627
-48.4626
-48.4624
-48.4622
-48.462
-48.4618
-48.4616
-48.4614
-48.4612
-48.4609
-48.4607
-48.4604
-48.4602
-48.4599
-48.4596
-48.4593
-48.459
-48.4587
-48.4583
-48.458
-48.4576
-48.4573
-48.457
-48.4566
-48.4563
-48.4561
-48.4559
-48.4558
-48.256
-48.2559
-48.2556
-48.2552
-48.2549
-48.2545
-48.2542
-48.2539
-48.2536
-48.2533
-48.2531
-48.2528
-48.2526
-48.2523
-48.2521
-48.2519
-48.2517
-48.2515
-48.2513
-48.2512
-48.251
-48.2508
-48.2507
-48.2505
-48.2504
-48.2503
-48.2502
-48.25
-48.2499
-48.2498
-48.2497
-48.2496
-48.2496
-48.2495
-48.2494
-48.2493
-48.2493
-48.2492
-48.2491
-48.2491
-48.249
-48.249
-48.2489
-48.2489
-48.2489
-48.2488
-48.2488
-48.2488
-48.2487
-48.2487
-48.2487
-48.2487
-48.2486
-48.2486
-48.2486
-48.2486
-48.2486
-48.2486
-48.2485
-48.2485
-48.2485
-48.2485
-48.2485
-48.2485
-48.2485
-48.2485
-48.2485
-48.2485
-48.2485
-48.2485
-48.2485
-48.2485
-48.2485
-48.2485
-48.2485
-48.2484
-48.2484
-48.2484
-48.2484
-48.2484
-48.2484
-48.2484
-48.2484
-48.2484
-48.2484
-48.2484
-48.2484
-48.2484
-48.2484
-48.2484
-48.2484
-48.2484
-48.2484
-48.2484
-48.2484
-48.2484
-48.2484
-48.2484
-48.2484
-48.2484
-48.2484
-48.2484
-48.2484
-48.2484
-48.2484
-48.2484
-48.2484
-48.2484
-48.2484
-48.2484
-48.2484
-48.2484
-48.2484
-48.2484
-48.2484
-48.2484
-48.2484
-48.2484
-48.2484
-48.2484
-48.2484
-48.2484
-48.2484
-48.2484
-48.2484
-48.2484
-48.2484
-48.2484
-48.2484
-48.2484
-48.2484
-48.2484
-48.2484
-48.2484
-48.2484
-48.2484
-48.2484
-48.2484
-48.2484
-48.2484
-48.2484
-48.2484
-48.2484
-48.2484
-48.2484
-48.2484
-48.2484
-48.2484
-48.2484
-48.2484
-48.2484
-48.2484
-48.2484
-48.2484
-48.2484
-48.2484
-48.2484
-48.2484
-48.2484
-48.2484
-48.2484
-48.2484
-48.2484
-48.2484
-48.2484
-48.2484
-48.2484
-48.2484
-48.2484
-48.2484
-48.2484
-48.2484
-48.2484
-48.2484
-48.2484
-48.2484
-48.2484
-48.2484
-48.2484
-48.2484
-48.2484
-48.2484
-48.2484
-48.2484
-48.2484
-48.2484
-48.2484
-48.2484
-48.2484
-48.2484
-48.2484
-48.2484
-48.2484
-48.2484
-48.2484
-48.2484
-48.2484
-48.2484
-48.2484
-48.2484
-48.2484
-48.2484
-48.2484
-48.2484
-48.2484
-48.2484
-48.2484
-48.2484
-48.2484
-48.2484
-48.2484
-48.2484
-48.2484
-48.2484
-48.2484
-48.2484
-48.2484
-48.2484
-48.2484
-48.2484
-48.2484
-48.2484
-48.2484
-48.2484
-48.2484
-48.2484
-48.2484
-48.2484
-48.2484
-48.2484
-48.2484
-48.2484
-48.2484
-48.2484
-48.2484
-48.2484
-48.2484
-48.2484
-48.2484
-48.2484
-48.2484
-48.2484
-48.2484
-48.2484
-48.2484
-48.2484
-48.2484
-48.2484
-48.2484
-48.2484
-48.2484
-48.2484
-48.2484
-48.2484
-48.2484
-48.2484
-48.2484
-48.2484
-48.2484
-48.2484
-48.2484
-48.2484
-48.2484
-48.2484
-48.2484
-48.2484
-48.2484
-48.2484
-48.2484
-48.2484
-48.2484
-48.2484
-48.2484
-48.2484
-48.2484
-48.2484
-48.2484
-48.2484
-48.2484
-48.2484
-48.2484
-48.2484
-48.2484
-48.2484
-48.2484
-48.2484
-48.2484
-48.2484
-48.2484
-48.2484
-48.2484
-48.2484
-48.2484
-48.2484
-48.2484
-48.2484
-48.2484
-48.2484
-48.2484
-48.2484
-48.2484
-48.2484
-48.2484
-48.2484
-48.2484
-48.2484
-48.2484
-48.2484
-48.2484
-48.2484
-48.2484
-48.2484
-48.2484
-48.2484
-48.2484
-48.2484
-48.2484
-48.2484
-48.2484
-48.2484
-48.2484
-48.2484
-48.2484
-48.2484
-48.2484
-48.2484
-48.2484
-48.2484
-48.2484
-48.2484
-48.2484
-48.2484
-48.2484
-48.2484
-48.2483
-48.2483
-48.2483
-48.2483
-48.2483
-48.2483
-48.2483
-48.2483
-48.2482
-48.2482
-48.2482
-48.2482
-48.2482
-48.2481
-48.2481
-48.2481
-48.248
-48.248
-48.248
-48.2479
-48.2479
-48.2478
-48.2478
-48.2477
-48.2476
-48.2476
-48.2475
-48.2474
-48.2473
-48.2472
-48.2471
-48.247
-48.2469
-48.2468
-48.2467
-48.2466
-48.2464
-48.2463
-48.2461
-48.246
-48.2458
-48.2456
-48.2454
-48.2452
-48.245
-48.2448
-48.2446
-48.2443
-48.2441
-48.2438
-48.2436
-48.2433
-48.243
-48.2427
-48.2424
-48.242
-48.2417
-48.2414
-48.241
-48.2407
-48.2403
-48.24
-48.2397
-48.2394
-48.2392
-48.2391
-47.822
-47.8219
-47.8216
-47.8212
-47.8208
-47.8205
-47.8202
-47.8198
-47.8196
-47.8193
-47.819
-47.8188
-47.8185
-47.8183
-47.8181
-47.8178
-47.8176
-47.8174
-47.8173
-47.8171
-47.8169
-47.8168
-47.8166
-47.8165
-47.8163
-47.8162
-47.8161
-47.816
-47.8159
-47.8158
-47.8157
-47.8156
-47.8155
-47.8154
-47.8153
-47.8153
-47.8152
-47.8151
-47.8151
-47.815
-47.815
-47.8149
-47.8149
-47.8148
-47.8148
-47.8147
-47.8147
-47.8147
-47.8147
-47.8146
-47.8146
-47.8146
-47.8146
-47.8145
-47.8145
-47.8145
-47.8145
-47.8145
-47.8145
-47.8145
-47.8144
-47.8144
-47.8144
-47.8144
-47.8144
-47.8144
-47.8144
-47.8144
-47.8144
-47.8144
-47.8144
-47.8144
-47.8144
-47.8144
-47.8144
-47.8144
-47.8144
-47.8144
-47.8144
-47.8144
-47.8144
-47.8144
-47.8144
-47.8144
-47.8144
-47.8144
-47.8144
-47.8144
-47.8144
-47.8143
-47.8143
-47.8143
-47.8143
-47.8143
-47.8143
-47.8143
-47.8143
-47.8143
-47.8143
-47.8143
-47.8143
-47.8143
-47.8143
-47.8143
-47.8143
-47.8143
-47.8143
-47.8143
-47.8143
-47.8143
-47.8143
-47.8143
-47.8143
-47.8143
-47.8143
-47.8143
-47.8143
-47.8143
-47.8143
-47.8143
-47.8143
-47.8143
-47.8143
-47.8143
-47.8143
-47.8143
-47.8143
-47.8143
-47.8143
-47.8143
-47.8143
-47.8143
-47.8143
-47.8143
-47.8143
-47.8143
-47.8143
-47.8143
-47.8143
-47.8143
-47.8143
-47.8143
-47.8143
-47.8143
-47.8143
-47.8143
-47.8143
-47.8143
-47.8143
-47.8143
-47.8143
-47.8143
-47.8143
-47.8143
-47.8143
-47.8143
-47.8143
-47.8143
-47.8143
-47.8143
-47.8143
-47.8143
-47.8143
-47.8143
-47.8143
-47.8143
-47.8143
-47.8143
-47.8143
-47.8143
-47.8143
-47.8143
-47.8143
-47.8143
-47.8143
-47.8143
-47.8143
-47.8143
-47.8143
-47.8143
-47.8143
-47.8143
-47.8143
-47.8143
-47.8143
-47.8143
-47.8143
-47.8143
-47.8143
-47.8143
-47.8143
-47.8143
-47.8143
-47.8143
-47.8143
-47.8143
-47.8143
-47.8143
-47.8143
-47.8143
-47.8143
-47.8143
-47.8143
-47.8143
-47.8143
-47.8143
-47.8143
-47.8143
-47.8143
-47.8143
-47.8143
-47.8143
-47.8143
-47.8143
-47.8143
-47.8143
-47.8143
-47.8143
-47.8143
-47.8143
-47.8143
-47.8143
-47.8143
-47.8143
-47.8143
-47.8143
-47.8143
-47.8143
-47.8143
-47.8143
-47.8143
-47.8143
-47.8143
-47.8143
-47.8143
-47.8143
-47.8143
-47.8143
-47.8143
-47.8143
-47.8143
-47.8143
-47.8143
-47.8143
-47.8143
-47.8143
-47.8143
-47.8143
-47.8143
-47.8143
-47.8143
-47.8143
-47.8143
-47.8143
-47.8143
-47.8143
-47.8143
-47.8143
-47.8143
-47.8143
-47.8143
-47.8143
-47.8143
-47.8143
-47.8143
-47.8143
-47.8143
-47.8143
-47.8143
-47.8143
-47.8143
-47.8143
-47.8143
-47.8143
-47.8143
-47.8143
-47.8143
-47.8143
-47.8143
-47.8143
-47.8143
-47.8143
-47.8143
-47.8143
-47.8143
-47.8143
-47.8143
-47.8143
-47.8143
-47.8143
-47.8143
-47.8143
-47.8143
-47.8143
-47.8143
-47.8143
-47.8143
-47.8143
-47.8143
-47.8143
-47.8143
-47.8143
-47.8143
-47.8143
-47.8143
-47.8143
-47.8143
-47.8143
-47.8143
-47.8143
-47.8143
-47.8143
-47.8143
-47.8143
-47.8143
-47.8143
-47.8143
-47.8143
-47.8143
-47.8143
-47.8143
-47.8143
-47.8143
-47.8143
-47.8143
-47.8143
-47.8143
-47.8143
-47.8143
-47.8143
-47.8143
-47.8143
-47.8143
-47.8143
-47.8143
-47.8143
-47.8142
-47.8142
-47.8142
-47.8142
-47.8142
-47.8142
-47.8142
-47.8141
-47.8141
-47.8141
-47.8141
-47.814
-47.814
-47.814
-47.8139
-47.8139
-47.8139
-47.8138
-47.8138
-47.8137
-47.8137
-47.8136
-47.8136
-47.8135
-47.8134
-47.8133
-47.8132
-47.8132
-47.8131
-47.813
-47.8129
-47.8127
-47.8126
-47.8125
-47.8124
-47.8122
-47.8121
-47.8119
-47.8117
-47.8115
-47.8114
-47.8112
-47.811
-47.8107
-47.8105
-47.8103
-47.81
-47.8098
-47.8095
-47.8092
-47.8089
-47.8086
-47.8083
-47.808
-47.8076
-47.8073
-47.807
-47.8066
-47.8063
-47.8059
-47.8055
-47.8052
-47.8049
-47.8049
-47.1686
-47.1684
-47.1681
-47.1677
-47.1673
-47.167
-47.1667
-47.1664
-47.1661
-47.1658
-47.1655
-47.1653
-47.165
-47.1648
-47.1645
-47.1643
-47.1641
-47.1639
-47.1637
-47.1636
-47.1634
-47.1632
-47.1631
-47.1629
-47.1628
-47.1627
-47.1626
-47.1624
-47.1623
-47.1622
-47.1621
-47.162
-47.162
-47.1619
-47.1618
-47.1617
-47.1617
-47.1616
-47.1615
-47.1615
-47.1614
-47.1614
-47.1613
-47.1613
-47.1612
-47.1612
-47.1612
-47.1611
-47.1611
-47.1611
-47.1611
-47.161
-47.161
-47.161
-47.161
-47.161
-47.161
-47.1609
-47.1609
-47.1609
-47.1609
-47.1609
-47.1609
-47.1609
-47.1609
-47.1609
-47.1609
-47.1609
-47.1609
-47.1608
-47.1608
-47.1608
-47.1608
-47.1608
-47.1608
-47.1608
-47.1608
-47.1608
-47.1608
-47.1608
-47.1608
-47.1608
-47.1608
-47.1608
-47.1608
-47.1608
-47.1608
-47.1608
-47.1608
-47.1608
-47.1608
-47.1608
-47.1608
-47.1608
-47.1608
-47.1608
-47.1608
-47.1608
-47.1608
-47.1608
-47.1608
-47.1608
-47.1608
-47.1608
-47.1608
-47.1608
-47.1608
-47.1608
-47.1608
-47.1608
-47.1608
-47.1608
-47.1608
-47.1608
-47.1608
-47.1608
-47.1608
-47.1608
-47.1608
-47.1608
-47.1608
-47.1608
-47.1608
-47.1608
-47.1608
-47.1608
-47.1608
-47.1608
-47.1608
-47.1608
-47.1608
-47.1608
-47.1608
-47.1608
-47.1608
-47.1608
-47.1608
-47.1608
-47.1608
-47.1608
-47.1608
-47.1608
-47.1608
-47.1608
-47.1608
-47.1608
-47.1608
-47.1608
-47.1608
-47.1608
-47.1608
-47.1608
-47.1608
-47.1608
-47.1608
-47.1608
-47.1608
-47.1608
-47.1608
-47.1608
-47.1608
-47.1608
-47.1608
-47.1608
-47.1608
-47.1608
-47.1608
-47.1608
-47.1608
-47.1608
-47.1608
-47.1608
-47.1608
-47.1608
-47.1608
-47.1608
-47.1608
-47.1608
-47.1608
-47.1608
-47.1608
-47.1608
-47.1608
-47.1608
-47.1608
-47.1608
-47.1608
-47.1608
-47.1608
-47.1608
-47.1608
-47.1608
-47.1608
-47.1608
-47.1608
-47.1608
-47.1608
-47.1608
-47.1608
-47.1608
-47.1608
-47.1608
-47.1608
-47.1608
-47.1608
-47.1608
-47.1608
-47.1608
-47.1608
-47.1608
-47.1608
-47.1608
-47.1608
-47.1608
-47.1608
-47.1608
-47.1608
-47.1608
-47.1608
-47.1608
-47.1608
-47.1608
-47.1608
-47.1608
-47.1608
-47.1608
-47.1608
-47.1608
-47.1608
-47.1608
-47.1608
-47.1608
-47.1608
-47.1608
-47.1608
-47.1608
-47.1608
-47.1608
-47.1608
-47.1608
-47.1608
-47.1608
-47.1608
-47.1608
-47.1608
-47.1608
-47.1608
-47.1608
-47.1608
-47.1608
-47.1608
-47.1608
-47.1608
-47.1608
-47.1608
-47.1608
-47.1608
-47.1608
-47.1608
-47.1608
-47.1608
-47.1608
-47.1608
-47.1608
-47.1608
-47.1608
-47.1608
-47.1608
-47.1608
-47.1608
-47.1608
-47.1608
-47.1608
-47.1608
-47.1608
-47.1608
-47.1608
-47.1608
-47.1608
-47.1608
-47.1608
-47.1608
-47.1608
-47.1608
-47.1608
-47.1608
-47.1608
-47.1608
-47.1608
-47.1608
-47.1608
-47.1608
-47.1608
-47.1608
-47.1608
-47.1608
-47.1608
-47.1608
-47.1608
-47.1608
-47.1608
-47.1608
-47.1608
-47.1608
-47.1608
-47.1608
-47.1608
-47.1608
-47.1608
-47.1608
-47.1608
-47.1608
-47.1608
-47.1608
-47.1608
-47.1608
-47.1608
-47.1608
-47.1608
-47.1608
-47.1608
-47.1608
-47.1608
-47.1608
-47.1608
-47.1608
-47.1608
-47.1608
-47.1608
-47.1608
-47.1608
-47.1608
-47.1607
-47.1607
-47.1607
-47.1607
-47.1607
-47.1607
-47.1607
-47.1607
-47.1607
-47.1606
-47.1606
-47.1606
-47.1606
-47.1606
-47.1605
-47.1605
-47.1605
-47.1604
-47.1604
-47.1604
-47.1603
-47.1603
-47.1602
-47.1602
-47.1601
-47.1601
-47.16
-47.16
-47.1599
-47.1598
-47.1597
-47.1596
-47.1595
-47.1594
-47.1593
-47.1592
-47.1591
-47.159
-47.1588
-47.1587
-47.1585
-47.1584
-47.1582
-47.158
-47.1578
-47.1576
-47.1574
-47.1572
-47.157
-47.1568
-47.1565
-47.1562
-47.156
-47.1557
-47.1554
-47.1551
-47.1548
-47.1545
-47.1541
-47.1538
-47.1534
-47.1531
-47.1527
-47.1523
-47.152
-47.1516
-47.1512
-47.1512
-46.2927
-46.2926
-46.2923
-46.2919
-46.2915
-46.2911
-46.2908
-46.2905
-46.2902
-46.2899
-46.2896
-46.2894
-46.2891
-46.2889
-46.2887
-46.2884
-46.2882
-46.288
-46.2879
-46.2877
-46.2875
-46.2873
-46.2872
-46.287
-46.2869
-46.2868
-46.2867
-46.2865
-46.2864
-46.2863
-46.2862
-46.2861
-46.286
-46.286
-46.2859
-46.2858
-46.2857
-46.2857
-46.2856
-46.2856
-46.2855
-46.2855
-46.2854
-46.2854
-46.2853
-46.2853
-46.2853
-46.2852
-46.2852
-46.2852
-46.2852
-46.2851
-46.2851
-46.2851
-46.2851
-46.2851
-46.285
-46.285
-46.285
-46.285
-46.285
-46.285
-46.285
-46.285
-46.285
-46.2849
-46.2849
-46.2849
-46.2849
-46.2849
-46.2849
-46.2849
-46.2849
-46.2849
-46.2849
-46.2849
-46.2849
-46.2849
-46.2849
-46.2849
-46.2849
-46.2849
-46.2849
-46.2849
-46.2849
-46.2849
-46.2849
-46.2849
-46.2849
-46.2849
-46.2849
-46.2849
-46.2849
-46.2849
-46.2849
-46.2849
-46.2849
-46.2849
-46.2849
-46.2849
-46.2849
-46.2849
-46.2849
-46.2849
-46.2849
-46.2849
-46.2849
-46.2849
-46.2849
-46.2849
-46.2849
-46.2849
-46.2849
-46.2849
-46.2849
-46.2849
-46.2849
-46.2849
-46.2849
-46.2849
-46.2849
-46.2849
-46.2849
-46.2849
-46.2849
-46.2849
-46.2849
-46.2849
-46.2849
-46.2849
-46.2849
-46.2849
-46.2849
-46.2849
-46.2849
-46.2849
-46.2849
-46.2849
-46.2849
-46.2849
-46.2849
-46.2849
-46.2849
-46.2849
-46.2849
-46.2849
-46.2849
-46.2849
-46.2849
-46.2849
-46.2849
-46.2849
-46.2849
-46.2849
-46.2849
-46.2849
-46.2849
-46.2849
-46.2849
-46.2849
-46.2849
-46.2849
-46.2849
-46.2849
-46.2849
-46.2849
-46.2849
-46.2849
-46.2849
-46.2849
-46.2849
-46.2849
-46.2849
-46.2849
-46.2849
-46.2849
-46.2849
-46.2849
-46.2849
-46.2849
-46.2849
-46.2849
-46.2849
-46.2849
-46.2849
-46.2849
-46.2849
-46.2849
-46.2849
-46.2849
-46.2849
-46.2849
-46.2849
-46.2849
-46.2849
-46.2849
-46.2849
-46.2849
-46.2849
-46.2849
-46.2849
-46.2849
-46.2849
-46.2849
-46.2849
-46.2849
-46.2849
-46.2849
-46.2849
-46.2849
-46.2849
-46.2849
-46.2849
-46.2849
-46.2849
-46.2849
-46.2849
-46.2849
-46.2849
-46.2849
-46.2849
-46.2849
-46.2849
-46.2849
-46.2849
-46.2849
-46.2849
-46.2849
-46.2849
-46.2849
-46.2849
-46.2849
-46.2849
-46.2849
-46.2849
-46.2849
-46.2849
-46.2849
-46.2849
-46.2849
-46.2849
-46.2849
-46.2849
-46.2849
-46.2849
-46.2849
-46.2849
-46.2849
-46.2849
-46.2849
-46.2849
-46.2849
-46.2849
-46.2849
-46.2849
-46.2849
-46.2849
-46.2849
-46.2849
-46.2849
-46.2849
-46.2849
-46.2849
-46.2849
-46.2849
-46.2849
-46.2849
-46.2849
-46.2849
-46.2849
-46.2849
-46.2849
-46.2849
-46.2849
-46.2849
-46.2849
-46.2849
-46.2849
-46.2849
-46.2849
-46.2849
-46.2849
-46.2849
-46.2849
-46.2849
-46.2849
-46.2849
-46.2849
-46.2849
-46.2849
-46.2849
-46.2849
-46.2849
-46.2849
-46.2849
-46.2849
-46.2849
-46.2849
-46.2849
-46.2849
-46.2849
-46.2849
-46.2849
-46.2849
-46.2849
-46.2849
-46.2849
-46.2849
-46.2849
-46.2849
-46.2849
-46.2849
-46.2849
-46.2849
-46.2849
-46.2849
-46.2849
-46.2849
-46.2849
-46.2849
-46.2849
-46.2849
-46.2849
-46.2849
-46.2849
-46.2849
-46.2849
-46.2849
-46.2848
-46.2848
-46.2848
-46.2848
-46.2848
-46.2848
-46.2848
-46.2848
-46.2848
-46.2848
-46.2848
-46.2848
-46.2847
-46.2847
-46.2847
-46.2847
-46.2847
-46.2846
-46.2846
-46.2846
-46.2846
-46.2845
-46.2845
-46.2845
-46.2844
-46.2844
-46.2843
-46.2843
-46.2842
-46.2842
-46.2841
-46.284
-46.284
-46.2839
-46.2838
-46.2837
-46.2836
-46.2835
-46.2834
-46.2833
-46.2832
-46.2831
-46.2829
-46.2828
-46.2826
-46.2825
-46.2823
-46.2821
-46.2819
-46.2818
-46.2815
-46.2813
-46.2811
-46.2809
-46.2806
-46.2804
-46.2801
-46.2798
-46.2795
-46.2792
-46.2789
-46.2786
-46.2783
-46.2779
-46.2776
-46.2772
-46.2768
-46.2764
-46.276
-46.2756
-46.2752
-46.2752
-45.1903
-45.1902
-45.1898
-45.1894
-45.189
-45.1887
-45.1883
-45.1885
-45.1881
-45.1879
-45.1876
-45.1873
-45.1871
-45.1868
-45.1866
-45.1864
-45.1862
-45.186
-45.1858
-45.1856
-45.1854
-45.1853
-45.1851
-45.185
-45.1848
-45.1847
-45.1846
-45.1844
-45.1843
-45.1842
-45.1841
-45.184
-45.1839
-45.1839
-45.1838
-45.1837
-45.1836
-45.1836
-45.1835
-45.1835
-45.1834
-45.1833
-45.1833
-45.1833
-45.1832
-45.1832
-45.1831
-45.1831
-45.1831
-45.1831
-45.183
-45.183
-45.183
-45.183
-45.183
-45.1829
-45.1829
-45.1829
-45.1829
-45.1829
-45.1829
-45.1829
-45.1829
-45.1828
-45.1828
-45.1828
-45.1828
-45.1828
-45.1828
-45.1828
-45.1828
-45.1828
-45.1828
-45.1828
-45.1828
-45.1828
-45.1828
-45.1828
-45.1828
-45.1828
-45.1828
-45.1828
-45.1828
-45.1828
-45.1828
-45.1828
-45.1828
-45.1828
-45.1828
-45.1828
-45.1828
-45.1828
-45.1828
-45.1828
-45.1828
-45.1828
-45.1828
-45.1828
-45.1828
-45.1828
-45.1828
-45.1828
-45.1828
-45.1828
-45.1828
-45.1828
-45.1828
-45.1828
-45.1828
-45.1828
-45.1828
-45.1828
-45.1828
-45.1828
-45.1828
-45.1828
-45.1828
-45.1828
-45.1828
-45.1828
-45.1828
-45.1828
-45.1828
-45.1828
-45.1828
-45.1828
-45.1828
-45.1828
-45.1828
-45.1828
-45.1828
-45.1828
-45.1828
-45.1828
-45.1828
-45.1828
-45.1828
-45.1828
-45.1828
-45.1828
-45.1828
-45.1828
-45.1828
-45.1828
-45.1828
-45.1828
-45.1828
-45.1828
-45.1828
-45.1828
-45.1828
-45.1828
-45.1828
-45.1828
-45.1828
-45.1828
-45.1828
-45.1828
-45.1828
-45.1828
-45.1828
-45.1828
-45.1828
-45.1828
-45.1828
-45.1828
-45.1828
-45.1828
-45.1828
-45.1828
-45.1828
-45.1828
-45.1828
-45.1828
-45.1828
-45.1828
-45.1828
-45.1828
-45.1828
-45.1828
-45.1828
-45.1828
-45.1828
-45.1828
-45.1828
-45.1828
-45.1828
-45.1828
-45.1828
-45.1828
-45.1828
-45.1828
-45.1828
-45.1828
-45.1828
-45.1828
-45.1828
-45.1828
-45.1828
-45.1828
-45.1828
-45.1828
-45.1828
-45.1828
-45.1828
-45.1828
-45.1828
-45.1828
-45.1828
-45.1828
-45.1828
-45.1828
-45.1828
-45.1828
-45.1828
-45.1828
-45.1828
-45.1828
-45.1828
-45.1828
-45.1828
-45.1828
-45.1828
-45.1828
-45.1828
-45.1828
-45.1828
-45.1828
-45.1828
-45.1828
-45.1828
-45.1828
-45.1828
-45.1828
-45.1828
-45.1828
-45.1828
-45.1828
-45.1828
-45.1828
-45.1828
-45.1828
-45.1828
-45.1828
-45.1828
-45.1828
-45.1828
-45.1828
-45.1828
-45.1828
-45.1828
-45.1828
-45.1828
-45.1828
-45.1828
-45.1828
-45.1828
-45.1828
-45.1828
-45.1828
-45.1828
-45.1828
-45.1828
-45.1828
-45.1828
-45.1828
-45.1828
-45.1828
-45.1828
-45.1828
-45.1828
-45.1828
-45.1828
-45.1828
-45.1828
-45.1828
-45.1828
-45.1828
-45.1828
-45.1828
-45.1828
-45.1828
-45.1828
-45.1828
-45.1828
-45.1828
-45.1828
-45.1828
-45.1828
-45.1828
-45.1828
-45.1828
-45.1828
-45.1828
-45.1828
-45.1828
-45.1828
-45.1828
-45.1828
-45.1828
-45.1828
-45.1828
-45.1828
-45.1828
-45.1828
-45.1828
-45.1828
-45.1828
-45.1828
-45.1828
-45.1828
-45.1828
-45.1828
-45.1828
-45.1828
-45.1828
-45.1828
-45.1828
-45.1828
-45.1828
-45.1828
-45.1828
-45.1828
-45.1827
-45.1827
-45.1827
-45.1827
-45.1827
-45.1827
-45.1827
-45.1827
-45.1827
-45.1827
-45.1827
-45.1827
-45.1827
-45.1827
-45.1827
-45.1827
-45.1826
-45.1826
-45.1826
-45.1826
-45.1826
-45.1826
-45.1825
-45.1825
-45.1825
-45.1824
-45.1824
-45.1824
-45.1823
-45.1823
-45.1823
-45.1822
-45.1822
-45.1821
-45.1821
-45.182
-45.1819
-45.1819
-45.1818
-45.1817
-45.1816
-45.1815
-45.1814
-45.1813
-45.1812
-45.1811
-45.181
-45.1808
-45.1807
-45.1805
-45.1804
-45.1802
-45.18
-45.1799
-45.1797
-45.1795
-45.1792
-45.179
-45.1788
-45.1785
-45.1783
-45.178
-45.1777
-45.177
-45.1767
-45.1764
-45.1761
-45.1757
-45.1754
-45.175
-45.1747
-45.1743
-45.1739
-45.1735
-45.1731
-45.1727
-45.1726
-43.8563
-43.8562
-43.8559
-43.8554
-43.855
-43.8547
-43.8543
-43.8549
-43.8546
-43.8543
-43.854
-43.8537
-43.8535
-43.8532
-43.853
-43.8528
-43.8525
-43.8523
-43.8522
-43.852
-43.8518
-43.8516
-43.8515
-43.8513
-43.8512
-43.851
-43.8509
-43.8508
-43.8507
-43.8506
-43.8505
-43.8504
-43.8503
-43.8502
-43.8501
-43.8501
-43.85
-43.8499
-43.8499
-43.8498
-43.8497
-43.8497
-43.8497
-43.8496
-43.8496
-43.8495
-43.8495
-43.8495
-43.8494
-43.8494
-43.8494
-43.8494
-43.8493
-43.8493
-43.8493
-43.8493
-43.8493
-43.8493
-43.8492
-43.8492
-43.8492
-43.8492
-43.8492
-43.8492
-43.8492
-43.8492
-43.8492
-43.8492
-43.8492
-43.8492
-43.8491
-43.8491
-43.8491
-43.8491
-43.8491
-43.8491
-43.8491
-43.8491
-43.8491
-43.8491
-43.8491
-43.8491
-43.8491
-43.8491
-43.8491
-43.8491
-43.8491
-43.8491
-43.8491
-43.8491
-43.8491
-43.8491
-43.8491
-43.8491
-43.8491
-43.8491
-43.8491
-43.8491
-43.8491
-43.8491
-43.8491
-43.8491
-43.8491
-43.8491
-43.8491
-43.8491
-43.8491
-43.8491
-43.8491
-43.8491
-43.8491
-43.8491
-43.8491
-43.8491
-43.8491
-43.8491
-43.8491
-43.8491
-43.8491
-43.8491
-43.8491
-43.8491
-43.8491
-43.8491
-43.8491
-43.8491
-43.8491
-43.8491
-43.8491
-43.8491
-43.8491
-43.8491
-43.8491
-43.8491
-43.8491
-43.8491
-43.8491
-43.8491
-43.8491
-43.8491
-43.8491
-43.8491
-43.8491
-43.8491
-43.8491
-43.8491
-43.8491
-43.8491
-43.8491
-43.8491
-43.8491
-43.8491
-43.8491
-43.8491
-43.8491
-43.8491
-43.8491
-43.8491
-43.8491
-43.8491
-43.8491
-43.8491
-43.8491
-43.8491
-43.8491
-43.8491
-43.8491
-43.8491
-43.8491
-43.8491
-43.8491
-43.8491
-43.8491
-43.8491
-43.8491
-43.8491
-43.8491
-43.8491
-43.8491
-43.8491
-43.8491
-43.8491
-43.8491
-43.8491
-43.8491
-43.8491
-43.8491
-43.8491
-43.8491
-43.8491
-43.8491
-43.8491
-43.8491
-43.8491
-43.8491
-43.8491
-43.8491
-43.8491
-43.8491
-43.8491
-43.8491
-43.8491
-43.8491
-43.8491
-43.8491
-43.8491
-43.8491
-43.8491
-43.8491
-43.8491
-43.8491
-43.8491
-43.8491
-43.8491
-43.8491
-43.8491
-43.8491
-43.8491
-43.8491
-43.8491
-43.8491
-43.8491
-43.8491
-43.8491
-43.8491
-43.8491
-43.8491
-43.8491
-43.8491
-43.8491
-43.8491
-43.8491
-43.8491
-43.8491
-43.8491
-43.8491
-43.8491
-43.8491
-43.8491
-43.8491
-43.8491
-43.8491
-43.8491
-43.8491
-43.8491
-43.8491
-43.8491
-43.8491
-43.8491
-43.8491
-43.8491
-43.8491
-43.8491
-43.8491
-43.8491
-43.8491
-43.8491
-43.8491
-43.8491
-43.8491
-43.8491
-43.8491
-43.8491
-43.8491
-43.8491
-43.8491
-43.8491
-43.8491
-43.8491
-43.8491
-43.8491
-43.8491
-43.8491
-43.8491
-43.8491
-43.8491
-43.8491
-43.8491
-43.8491
-43.8491
-43.8491
-43.8491
-43.8491
-43.8491
-43.8491
-43.8491
-43.8491
-43.8491
-43.8491
-43.8491
-43.8491
-43.8491
-43.8491
-43.8491
-43.8491
-43.8491
-43.8491
-43.8491
-43.8491
-43.8491
-43.8491
-43.8491
-43.8491
-43.8491
-43.8491
-43.8491
-43.8491
-43.8491
-43.8491
-43.8491
-43.8491
-43.8491
-43.8491
-43.8491
-43.8491
-43.8491
-43.8491
-43.8491
-43.8491
-43.8491
-43.8491
-43.8491
-43.8491
-43.8491
-43.8491
-43.8491
-43.8491
-43.8491
-43.8491
-43.8491
-43.8491
-43.8491
-43.8491
-43.849
-43.849
-43.849
-43.849
-43.849
-43.849
-43.849
-43.849
-43.849
-43.8489
-43.8489
-43.8489
-43.8489
-43.8489
-43.8488
-43.8488
-43.8488
-43.8487
-43.8487
-43.8487
-43.8486
-43.8486
-43.8485
-43.8485
-43.8484
-43.8483
-43.8483
-43.8482
-43.8481
-43.8481
-43.848
-43.8479
-43.8478
-43.8477
-43.8476
-43.8475
-43.8473
-43.8472
-43.8471
-43.8469
-43.8468
-43.8466
-43.8464
-43.8462
-43.846
-43.8458
-43.8456
-43.8454
-43.8452
-43.8449
-43.8447
-43.8444
-43.8441
-43.843
-43.8427
-43.8424
-43.842
-43.8417
-43.8414
-43.841
-43.8406
-43.8402
-43.8398
-43.8394
-43.839
-43.8386
-43.8385
-42.2848
-42.2846
-42.2843
-42.2838
-42.2834
-42.2831
-42.2827
-42.2832
-42.2829
-42.2826
-42.2823
-42.2821
-42.2818
-42.2815
-42.2813
-42.2811
-42.2809
-42.2807
-42.2805
-42.2803
-42.2801
-42.2799
-42.2798
-42.2796
-42.2795
-42.2793
-42.2792
-42.2791
-42.279
-42.2789
-42.2788
-42.2787
-42.2786
-42.2785
-42.2784
-42.2783
-42.2783
-42.2782
-42.2781
-42.2781
-42.278
-42.278
-42.2779
-42.2779
-42.2778
-42.2778
-42.2778
-42.2777
-42.2777
-42.2777
-42.2776
-42.2776
-42.2776
-42.2776
-42.2776
-42.2775
-42.2775
-42.2775
-42.2775
-42.2775
-42.2775
-42.2775
-42.2775
-42.2775
-42.2774
-42.2774
-42.2774
-42.2774
-42.2774
-42.2774
-42.2774
-42.2774
-42.2774
-42.2774
-42.2774
-42.2774
-42.2774
-42.2774
-42.2774
-42.2774
-42.2774
-42.2774
-42.2774
-42.2774
-42.2774
-42.2774
-42.2774
-42.2774
-42.2774
-42.2774
-42.2774
-42.2774
-42.2774
-42.2774
-42.2774
-42.2774
-42.2774
-42.2774
-42.2774
-42.2774
-42.2774
-42.2774
-42.2774
-42.2774
-42.2774
-42.2774
-42.2774
-42.2774
-42.2774
-42.2774
-42.2774
-42.2774
-42.2774
-42.2774
-42.2774
-42.2774
-42.2774
-42.2774
-42.2774
-42.2774
-42.2774
-42.2774
-42.2774
-42.2774
-42.2774
-42.2774
-42.2774
-42.2774
-42.2774
-42.2774
-42.2774
-42.2774
-42.2774
-42.2774
-42.2774
-42.2774
-42.2774
-42.2774
-42.2774
-42.2774
-42.2774
-42.2774
-42.2774
-42.2774
-42.2774
-42.2774
-42.2774
-42.2774
-42.2774
-42.2774
-42.2774
-42.2774
-42.2774
-42.2774
-42.2774
-42.2774
-42.2774
-42.2774
-42.2774
-42.2774
-42.2774
-42.2774
-42.2774
-42.2774
-42.2774
-42.2774
-42.2774
-42.2774
-42.2774
-42.2774
-42.2774
-42.2774
-42.2774
-42.2774
-42.2774
-42.2774
-42.2774
-42.2774
-42.2774
-42.2774
-42.2774
-42.2774
-42.2774
-42.2774
-42.2774
-42.2774
-42.2774
-42.2774
-42.2774
-42.2774
-42.2774
-42.2774
-42.2774
-42.2774
-42.2774
-42.2774
-42.2774
-42.2774
-42.2774
-42.2774
-42.2774
-42.2774
-42.2774
-42.2774
-42.2774
-42.2774
-42.2774
-42.2774
-42.2774
-42.2774
-42.2774
-42.2774
-42.2774
-42.2774
-42.2774
-42.2774
-42.2774
-42.2774
-42.2774
-42.2774
-42.2774
-42.2774
-42.2774
-42.2774
-42.2774
-42.2774
-42.2774
-42.2774
-42.2774
-42.2774
-42.2774
-42.2774
-42.2774
-42.2774
-42.2774
-42.2774
-42.2774
-42.2774
-42.2774
-42.2774
-42.2774
-42.2774
-42.2774
-42.2774
-42.2774
-42.2774
-42.2774
-42.2774
-42.2774
-42.2774
-42.2774
-42.2774
-42.2774
-42.2774
-42.2774
-42.2774
-42.2774
-42.2774
-42.2774
-42.2774
-42.2774
-42.2774
-42.2774
-42.2774
-42.2774
-42.2774
-42.2774
-42.2774
-42.2774
-42.2774
-42.2774
-42.2774
-42.2774
-42.2774
-42.2774
-42.2774
-42.2774
-42.2774
-42.2774
-42.2774
-42.2774
-42.2774
-42.2774
-42.2774
-42.2774
-42.2774
-42.2774
-42.2774
-42.2774
-42.2774
-42.2774
-42.2774
-42.2774
-42.2774
-42.2774
-42.2774
-42.2774
-42.2774
-42.2774
-42.2774
-42.2774
-42.2774
-42.2774
-42.2774
-42.2774
-42.2774
-42.2774
-42.2774
-42.2774
-42.2774
-42.2774
-42.2774
-42.2774
-42.2774
-42.2774
-42.2774
-42.2774
-42.2774
-42.2774
-42.2774
-42.2774
-42.2774
-42.2774
-42.2774
-42.2774
-42.2773
-42.2773
-42.2773
-42.2773
-42.2773
-42.2773
-42.2773
-42.2773
-42.2773
-42.2773
-42.2773
-42.2773
-42.2773
-42.2773
-42.2773
-42.2772
-42.2772
-42.2772
-42.2772
-42.2772
-42.2771
-42.2771
-42.2771
-42.2771
-42.277
-42.277
-42.277
-42.2769
-42.2769
-42.2768
-42.2768
-42.2767
-42.2767
-42.2766
-42.2766
-42.2765
-42.2764
-42.2763
-42.2762
-42.2762
-42.2761
-42.276
-42.2759
-42.2757
-42.2756
-42.2755
-42.2753
-42.2752
-42.2751
-42.2749
-42.2747
-42.2745
-42.2744
-42.2742
-42.2739
-42.2737
-42.2735
-42.2733
-42.273
-42.2727
-42.2725
-42.2713
-42.271
-42.2707
-42.2704
-42.27
-42.2697
-42.2693
-42.269
-42.2686
-42.2682
-42.2677
-42.2673
-42.2669
-42.2668
-40.4678
-40.4677
-40.4673
-40.4669
-40.4665
-40.4661
-40.4657
-40.4663
-40.4659
-40.4656
-40.4653
-40.4651
-40.4648
-40.4645
-40.4643
-40.4641
-40.4638
-40.4636
-40.4634
-40.4632
-40.463
-40.4629
-40.4627
-40.4626
-40.4624
-40.4623
-40.4621
-40.462
-40.4619
-40.4618
-40.4617
-40.4616
-40.4615
-40.4614
-40.4613
-40.4613
-40.4612
-40.4611
-40.461
-40.461
-40.4609
-40.4609
-40.4608
-40.4608
-40.4607
-40.4607
-40.4607
-40.4606
-40.4606
-40.4606
-40.4606
-40.4605
-40.4605
-40.4605
-40.4605
-40.4605
-40.4604
-40.4604
-40.4604
-40.4604