/*--------------------------------*- C++ -*----------------------------------*\
| =========                 |                                                 |
| \\      /  F ield         | foam-extend: Open Source CFD                    |
|  \\    /   O peration     | Version:     4.0                                |
|   \\  /    A nd           | Web:         http://www.foam-extend.org         |
|    \\/     M anipulation  |                                                 |
\*---------------------------------------------------------------------------*/
FoamFile
{
    version     2.0;
    format      ascii;
    class       volVectorField;
    location    "205.9";
    object      gradSolTime;
}
// * * * * * * * * * * * * * * * * * * * * * * * * * * * * * * * * * * * * * //

dimensions      [0 -1 0 0 0 0 0];

internalField   nonuniform List<vector> 
6000
(
(8.13152e-15 -600 8.13152e-15)
(-4.96022e-13 -600 -8.13152e-15)
(-2.35814e-13 -600 -8.13152e-15)
(-7.56231e-13 -600 -8.13152e-15)
(1.01644e-12 -600 -2.43945e-14)
(4.87891e-14 -600 4.06576e-14)
(3.07371e-12 -600 -8.13152e-15)
(-2.08167e-12 -600 -8.13152e-15)
(4.16334e-12 -600 -1.6263e-14)
(-2.08167e-12 -600 1.6263e-14)
(9.96111e-12 -600 -1.6263e-14)
(-1.13841e-12 -600 4.87891e-14)
(-3.17129e-12 -600 1.6263e-14)
(4.87891e-14 -600 1.6263e-14)
(9.44069e-12 -600 1.6263e-14)
(7.31023e-12 -600 1.69767e-28)
(-7.31836e-14 -600 -1.6263e-14)
(-5.22856e-12 -600 3.25261e-14)
(3.1225e-12 -600 1.6263e-14)
(-2.03288e-12 -600 8.13152e-15)
(1.35552e-11 -600 -8.13152e-15)
(-4.87891e-14 -600 8.13152e-15)
(-8.35107e-12 -600 8.13152e-15)
(-4.18773e-12 -600 1.6263e-14)
(2.08167e-12 -600 -1.6263e-14)
(-8.32667e-12 -600 2.43945e-14)
(4.09015e-12 -600 -5.69206e-14)
(-1.46205e-11 -600 4.06576e-14)
(2.13046e-12 -600 -2.97547e-30)
(-1.66046e-11 -600 4.87891e-14)
(-2.03288e-12 -600 8.13152e-15)
(-6.2694e-12 -600 -2.43945e-14)
(4.21213e-12 -600 1.6263e-14)
(1.04327e-11 -600 -4.87891e-14)
(8.30228e-12 -600 1.6263e-14)
(1.45961e-11 -600 -4.87891e-14)
(2.9119e-11 -600 -4.06576e-14)
(-1.66533e-11 -600 2.43945e-14)
(8.25349e-12 -600 -4.06576e-14)
(-3.12494e-11 -600 -4.87891e-14)
(-2.28008e-11 -600 1.6263e-14)
(2.08167e-11 -600 -5.69206e-14)
(-2.10606e-12 -600 -2.43945e-14)
(-4.16334e-12 -600 -3.25261e-14)
(1.24412e-11 -600 -2.43945e-14)
(-1.46205e-11 -600 -3.25261e-14)
(4.87891e-14 -600 4.87891e-14)
(8.37546e-12 -600 -1.6263e-14)
(3.74456e-11 -600 -6.50521e-14)
(-1.66533e-11 -600 -2.43945e-14)
(-150 -600 -1.77877e-14)
(-150 -400 -5.57348e-14)
(-7.31836e-14 -600 -2.43945e-14)
(-4.16334e-12 -600 -1.6263e-14)
(8.32667e-12 -600 -2.43945e-14)
(2.43945e-14 -600 -1.6263e-14)
(3.33555e-11 -600 -6.50521e-14)
(-150 -600 -2.49028e-14)
(-150 -600 2.94767e-14)
(4.18773e-12 -600 -7.31836e-14)
(-8.35107e-12 -600 -2.43945e-14)
(-150 -600 -1.93124e-14)
(-150 -600 -6.65768e-14)
(-150 -600 -8.94467e-14)
(-150 -400 -1.0842e-14)
(-150 -600 -7.82658e-14)
(-150 -400 -7.7927e-15)
(-150 -600 -9.65618e-15)
(-300 -600 -2.33781e-14)
(-150 -400 -2.37169e-15)
(-150 -600 2.13452e-14)
(-300 -600 -2.13452e-14)
(-300 -600 -5.0822e-15)
(-450 -600 1.52466e-14)
(-450 -400 -1.6263e-14)
(-300 -600 -8.13152e-15)
(-450 -600 -3.45589e-14)
(-600 -600 -8.13152e-14)
(-600 -600 2.13453e-22)
(-600 -600 1.82959e-14)
(-600 -600 -3.86247e-14)
(-750 -600 -3.20178e-14)
(-750 -400 -3.15096e-14)
(-750 -600 -1.82959e-14)
(-1050 -600 2.13452e-14)
(-1050 -400 -1.0842e-14)
(-1050 -600 2.13452e-14)
(-1200 -600 -6.91179e-14)
(-1200 -600 -6.91179e-14)
(-1350 -600 2.23617e-14)
(-1500 -600 -3.15096e-14)
(-1650 -600 -7.52165e-14)
(-1800 -600 -6.50521e-14)
(-1800 -600 5.28549e-14)
(-1950 -600 1.16382e-13)
(-2250 -600 -6.20028e-14)
(-2250 -400 2.82909e-14)
(-2400 -600 8.13152e-14)
(-2700 -400 1.6263e-14)
(-2700 -400 -1.66018e-14)
(-2850 -600 3.25261e-14)
(-3150 -600 -5.59042e-14)
(-3300 -400 -1.00628e-21)
(-3450 -600 6.75932e-14)
(-3750 -600 8.13152e-15)
(-3900 -400 5.04832e-14)
(-4200 -600 -1.01644e-14)
(-4500 -400 6.86091e-22)
(-4650 -400 5.26854e-14)
(-4950 -400 2.1684e-14)
(-5100 -400 -4.09964e-14)
(-5400 -600 -8.23324e-22)
(-5700 -400 2.1684e-14)
(-6000 -600 -6.09864e-14)
(-6450 -400 5.47183e-14)
(-6750 -400 9.57147e-14)
(-7050 -400 -6.0817e-14)
(-7350 -400 -9.09713e-14)
(-7650 -400 2.71051e-14)
(-8100 -400 0)
(-8550 -400 7.60636e-14)
(-8850 -400 8.45339e-14)
(-9300 -400 5.42101e-15)
(-9750 -400 -2.09048e-13)
(-10200 -400 -1.1994e-13)
(-10800 -400 2.19551e-13)
(-11250 -400 -1.14349e-13)
(-11850 -400 -1.3129e-13)
(-12450 -400 1.31968e-13)
(-12900 -400 -2.5682e-13)
(-13500 -400 -3.01544e-13)
(-14250 -400 2.78843e-13)
(-15000 -400 3.10353e-13)
(-15600 -400 1.53144e-13)
(-16500 -400 -3.24583e-13)
(-17400 -200 -3.59142e-13)
(-18000 -200 1.77538e-13)
(-19050 -400 1.88211e-13)
(-20100 -200 4.08609e-13)
(-21000 -200 1.6263e-14)
(-22200 -200 -6.76949e-13)
(-23100 1.28231e-09 -7.04408e-21)
(-23850 -200 2.53263e-13)
(-24300 -200 -2.7105e-15)
(-23850 1.32394e-09 4.84842e-13)
(-22050 -3.05841e-10 2.38109e-26)
(-19200 -1.21973e-13 -5.85469e-13)
(-15900 6.61751e-10 1.61614e-13)
(-12300 -1.02374e-09 -4.23103e-26)
(-5250 -7.34987e-11 -5.33631e-14)
(-5.52943e-13 -1800 -2.43945e-14)
(1.39862e-12 -1800 -2.85009e-29)
(-1.46367e-13 -1800 -2.43945e-14)
(9.59519e-13 -1800 -3.05067e-29)
(4.87891e-13 -1800 2.43945e-14)
(-4.71628e-13 -1800 4.87891e-14)
(-1.41488e-12 -1800 -3.35952e-29)
(-3.7405e-13 -1800 1.63283e-29)
(-1.04083e-12 -1800 -2.43945e-14)
(-7.48099e-13 -1800 -2.38038e-29)
(-3.7405e-13 -1800 4.87891e-14)
(-5.85469e-13 -1800 -2.43945e-14)
(2.53703e-12 -1800 2.43945e-14)
(-2.97613e-12 -1800 2.43945e-14)
(-2.82977e-12 -1800 -2.43945e-14)
(-3.1225e-12 -1800 -5.13764e-28)
(8.94467e-13 -1800 2.43945e-14)
(7.48099e-13 -1800 -4.87891e-14)
(-5.0578e-12 -1800 2.43945e-14)
(-1.04083e-12 -1800 -7.31836e-14)
(-7.13947e-12 -1800 9.75782e-14)
(-3.72423e-12 -1800 2.43945e-14)
(3.8706e-12 -1800 -4.87891e-14)
(-4.3097e-12 -1800 -4.87891e-14)
(6.39137e-12 -1800 7.31836e-14)
(-1.9353e-12 -1800 -4.87891e-14)
(4.16334e-12 -1800 7.31836e-14)
(1.4962e-12 -1800 -4.87891e-14)
(-1.04083e-11 -1800 1.75222e-28)
(4.39102e-13 -1800 -2.43945e-14)
(5.85469e-13 -1800 4.87891e-14)
(4.3097e-12 -1800 -2.43945e-14)
(-8.47304e-12 -1800 -2.43945e-14)
(6.09864e-12 -1800 2.43945e-14)
(4.3097e-12 -1800 -5.95094e-29)
(4.39102e-13 -1800 2.43945e-14)
(1.4962e-12 -1800 1.19923e-27)
(-2.08167e-12 -1800 -4.87891e-14)
(-1.64257e-12 -1800 2.43945e-14)
(3.06396e-11 -1800 -4.87891e-14)
(2.92735e-13 -1800 -2.43945e-14)
(2.66714e-12 -1800 -1.79904e-28)
(3.72423e-12 -1800 -7.31836e-14)
(8.32667e-12 -1800 2.43945e-14)
(6.39137e-12 -1800 -7.31836e-14)
(1.19045e-11 -1800 -9.75782e-14)
(-2.92735e-13 -1800 2.43945e-14)
(2.92735e-13 -1800 2.43945e-14)
(-1.23436e-11 -1800 -4.87891e-14)
(-4.01697e-12 -1800 -3.55991e-28)
(4.45607e-12 -1800 2.43945e-14)
(-150 -1600 -2.1684e-14)
(-150 -1800 5.48877e-14)
(8.18031e-12 -1800 4.87891e-14)
(4.3097e-12 -1800 2.43945e-14)
(8.76577e-12 -1800 6.86011e-28)
(-1.23436e-11 -1800 -2.43945e-14)
(-150 -1800 2.89685e-14)
(-150 -1800 -4.57398e-15)
(1.249e-11 -1800 2.43945e-14)
(4.01697e-12 -1800 2.43945e-14)
(-150 -1800 -4.57398e-15)
(-150 -1800 2.13452e-14)
(1.26364e-11 -1800 -5.24858e-28)
(-150 -1600 -2.01594e-14)
(-150 -1800 -2.13452e-14)
(-150 -1600 1.52466e-15)
(-300 -1800 -3.04932e-15)
(-150 -1800 2.59192e-14)
(-150 -1600 -4.18434e-14)
(-300 -1800 2.43945e-14)
(-300 -1800 -3.04932e-15)
(-300 -1800 -9.45289e-14)
(-300 -1800 2.43945e-14)
(-450 -1600 6.86094e-23)
(-450 -1800 4.57398e-15)
(-450 -1800 1.06726e-14)
(-600 -1800 -5.48877e-14)
(-600 -1600 1.82959e-14)
(-600 -1600 2.1684e-14)
(-600 -1600 -2.77827e-14)
(-600 -1800 -1.21973e-14)
(-750 -1600 -7.6233e-15)
(-900 -1800 2.13452e-14)
(-900 -1800 1.82959e-14)
(-1050 -1600 -4.30293e-14)
(-1200 -1800 -3.65918e-14)
(-1200 -1600 -9.48677e-15)
(-1200 -1600 8.67362e-14)
(-1350 -1800 2.13452e-14)
(-1500 -1800 -3.04932e-14)
(-1650 -1800 -3.35425e-14)
(-1800 -1600 -2.1684e-14)
(-1800 -1600 8.47033e-14)
(-1950 -1600 1.79571e-14)
(-2100 -1600 -2.10064e-14)
(-2250 -1600 2.28699e-14)
(-2400 -1600 -4.87891e-14)
(-2550 -1600 -4.33681e-14)
(-2850 -1400 3.89635e-14)
(-3000 -1600 -9.14796e-14)
(-3000 -1600 -2.1684e-14)
(-3300 -1600 1.22312e-13)
(-3600 -1600 -7.31836e-14)
(-3600 -1600 1.09775e-21)
(-3900 -1600 5.75982e-14)
(-4200 -1600 -4.26905e-14)
(-4350 -1400 -1.13672e-13)
(-4650 -1400 9.31736e-15)
(-4950 -1400 1.50941e-13)
(-5250 -1400 -1.60089e-13)
(-5400 -1400 -2.46995e-21)
(-5700 -1400 1.15874e-13)
(-6000 -1400 -6.09864e-14)
(-6300 -1400 1.47045e-13)
(-6750 -1400 6.86097e-14)
(-7050 -1200 -2.14977e-13)
(-7350 -1200 1.49417e-13)
(-7650 -1200 9.40207e-14)
(-8100 -1400 -2.46995e-13)
(-8550 -1200 1.6263e-14)
(-8850 -1200 -1.7991e-13)
(-9300 -1200 -1.10792e-13)
(-9750 -1200 1.81943e-13)
(-10200 -1200 -7.11508e-14)
(-10800 -1200 7.72494e-14)
(-11250 -1200 3.43048e-13)
(-11850 -1200 3.25261e-14)
(-12450 -1000 -2.39541e-13)
(-12900 -1000 -2.75794e-13)
(-13500 -1000 1.50772e-13)
(-14250 -1200 4.87891e-14)
(-15000 -1000 1.38913e-13)
(-15600 -1000 3.44234e-13)
(-16350 -1000 -4.98564e-13)
(-17250 -800 -7.89012e-21)
(-18150 -800 3.90652e-13)
(-19050 -1000 -1.80079e-13)
(-19950 -600 6.08339e-13)
(-21000 -800 -1.0842e-14)
(-22050 -600 -6.72375e-13)
(-23100 -400 4.80437e-13)
(-24000 -400 5.42101e-15)
(-24150 -200 -4.8823e-13)
(-23700 -200 2.40896e-13)
(-22050 -6.11352e-10 -6.72375e-13)
(-19200 -6.09864e-13 -3.90313e-13)
(-15900 2.19552e-21 4.84842e-13)
(-12300 1.71136e-10 -2.50044e-13)
(-5250 7.11508e-11 5.33631e-14)
(3.54534e-12 -3000 -1.6263e-13)
(-1.00831e-12 -3000 8.13152e-14)
(-1.23599e-12 -3000 -1.78528e-28)
(-2.73219e-12 -3000 8.13152e-14)
(-1.95156e-13 -3000 1.21973e-13)
(1.43115e-12 -3000 -1.21973e-13)
(1.52873e-12 -3000 -1.64996e-28)
(-1.4962e-12 -3000 -1.58403e-28)
(2.50451e-12 -3000 4.62223e-30)
(6.50521e-14 -3000 -4.06576e-14)
(-4.87891e-13 -3000 -1.5747e-28)
(-2.01662e-12 -3000 -1.21973e-13)
(-6.60279e-12 -3000 4.06576e-14)
(-1.10589e-12 -3000 -1.21973e-13)
(1.95156e-12 -3000 -8.13152e-14)
(-1.59378e-12 -3000 0)
(-4.87891e-13 -3000 8.13152e-14)
(-1.46367e-12 -3000 -8.13152e-14)
(2.56956e-12 -3000 -1.38667e-29)
(2.08167e-12 -3000 -4.06576e-14)
(2.63461e-12 -3000 -4.06576e-14)
(3.05745e-12 -3000 1.36872e-28)
(-1.04083e-12 -3000 4.06576e-14)
(7.35089e-12 -3000 -4.06576e-14)
(-2.56956e-12 -3000 4.06576e-14)
(-2.56956e-12 -3000 -1.21973e-13)
(-4.65123e-12 -3000 1.21973e-13)
(-4.16334e-12 -3000 -1.21973e-13)
(4.16334e-12 -3000 -4.06576e-14)
(-4.16334e-12 -3000 -4.06576e-14)
(-1.72388e-12 -3000 -9.30556e-29)
(-9.43256e-12 -3000 2.04977e-28)
(6.245e-12 -3000 4.06576e-14)
(-5.75711e-12 -3000 8.13152e-14)
(-6.245e-12 -3000 -8.13152e-14)
(-5.75711e-12 -3000 4.06576e-14)
(-1.55475e-11 -3000 4.06576e-14)
(-6.7329e-12 -3000 -8.13152e-14)
(2.08167e-12 -3000 4.06576e-14)
(-1.66533e-11 -3000 2.43945e-13)
(-3.67545e-12 -3000 -4.06576e-14)
(-1.59378e-12 -3000 1.6263e-13)
(-1.59378e-12 -3000 8.13152e-14)
(3.67545e-12 -3000 8.13152e-14)
(-9.30245e-12 -3000 4.06576e-14)
(-3.05745e-12 -3000 1.21973e-13)
(-1.50596e-11 -3000 -2.84603e-13)
(6.60279e-12 -3000 8.13152e-14)
(2.59558e-11 -3000 1.6263e-13)
(2.21177e-12 -3000 8.13152e-14)
(4.87891e-13 -3000 4.06576e-14)
(-150 -3200 8.67362e-14)
(-150 -3000 1.32645e-13)
(-1.46367e-12 -3000 4.06576e-14)
(4.65123e-12 -3000 1.21973e-13)
(6.1149e-12 -3000 -4.06576e-14)
(6.863e-12 -3000 1.21973e-13)
(-150 -3000 1.31121e-13)
(-150 -3000 -1.25022e-13)
(-8.32667e-12 -3000 1.6263e-13)
(-3.67545e-12 -3000 4.06576e-14)
(-150 -3000 -4.37069e-14)
(-150 -3000 1.61106e-13)
(-4.16334e-12 -3000 1.21973e-13)
(-150 -3000 1.20448e-13)
(-150 -3000 1.67204e-13)
(-150 -3000 4.52316e-14)
(-300 -3000 6.60979e-29)
(-150 -3000 1.23497e-13)
(-150 -3000 4.37069e-14)
(-300 -3000 -8.13152e-14)
(-300 -3000 1.09775e-13)
(-300 -3000 6.09864e-15)
(-300 -3000 6.09864e-15)
(-450 -3000 7.67412e-14)
(-450 -2800 4.25211e-14)
(-450 -3000 1.32137e-14)
(-450 -2800 1.47214e-13)
(-450 -2800 3.20178e-14)
(-600 -2800 -1.21973e-14)
(-750 -2800 9.85946e-14)
(-750 -2800 2.28699e-22)
(-750 -3000 9.91029e-14)
(-900 -3000 1.99222e-13)
(-900 -2800 -9.55453e-14)
(-1050 -3000 1.93124e-14)
(-1050 -2800 5.92923e-14)
(-1050 -2800 8.65668e-14)
(-1350 -2800 -3.79471e-14)
(-1500 -2800 -7.58942e-14)
(-1500 -2800 -4.57398e-14)
(-1500 -2800 -1.1418e-13)
(-1650 -2800 1.56193e-13)
(-1800 -2600 1.09775e-13)
(-1950 -2800 5.0822e-15)
(-2250 -2600 -2.28699e-14)
(-2250 -2800 -3.43049e-22)
(-2400 -2600 -1.40946e-13)
(-2550 -2800 -2.59192e-14)
(-2700 -2600 2.74439e-14)
(-3000 -2600 -1.76183e-13)
(-3150 -2600 7.36919e-14)
(-3300 -2600 3.35425e-14)
(-3450 -2600 -1.40946e-13)
(-3750 -2400 5.94617e-14)
(-3900 -2600 3.96411e-14)
(-4050 -2400 -1.21465e-13)
(-4350 -2600 -5.31937e-14)
(-4650 -2600 3.52366e-14)
(-4950 -2400 -2.94767e-14)
(-5100 -2400 -1.16891e-13)
(-5400 -2400 3.25261e-14)
(-5700 -2400 -1.30104e-13)
(-6000 -2400 9.14789e-22)
(-6450 -2400 6.55604e-14)
(-6600 -2400 -3.25261e-14)
(-6900 -2200 -9.99499e-14)
(-7350 -2200 2.98156e-14)
(-7800 -2200 -5.96311e-14)
(-8100 -2200 2.98156e-14)
(-8400 -2200 8.53809e-14)
(-8850 -2000 -1.1706e-13)
(-9300 -2200 -5.0822e-15)
(-9750 -2000 9.91029e-14)
(-10200 -2200 -2.37169e-13)
(-10800 -2000 8.13152e-14)
(-11250 -2000 3.15943e-13)
(-11700 -2000 -8.13152e-14)
(-12300 -1800 -2.98833e-13)
(-12900 -1800 -2.37847e-13)
(-13650 -1800 2.04304e-13)
(-14250 -1800 2.43945e-14)
(-14850 -1600 1.50941e-13)
(-15600 -1600 2.30393e-13)
(-16350 -1600 -7.0812e-13)
(-17250 -1600 6.50521e-14)
(-18150 -1400 3.12047e-13)
(-18900 -1400 -2.11081e-13)
(-19950 -1200 1.6263e-14)
(-21000 -1200 -4.87891e-14)
(-21900 -1000 0)
(-22950 -1000 2.06168e-13)
(-23700 -600 -8.13152e-15)
(-24150 -400 -2.4547e-13)
(-23700 -400 2.46317e-13)
(-21900 9.12942e-10 -8.90401e-13)
(-19200 -7.31836e-13 -1.95156e-13)
(-15900 -8.78204e-13 9.69683e-13)
(-12300 5.13847e-10 -5.00088e-13)
(-5250 -7.54198e-11 4.80274e-21)
(8.13152e-13 -4200 2.84603e-13)
(-1.6263e-13 -4200 -5.69206e-14)
(-1.78893e-12 -4200 -5.69206e-14)
(6.83047e-13 -4200 -1.13841e-13)
(-7.15573e-13 -4200 -5.69206e-14)
(-9.43256e-13 -4200 -2.27682e-13)
(-2.04914e-12 -4200 1.13841e-13)
(2.08167e-12 -4200 -5.69206e-14)
(-7.15573e-13 -4200 1.13841e-13)
(8.45678e-13 -4200 -5.69206e-14)
(5.20417e-13 -4200 -3.74859e-29)
(9.1073e-13 -4200 5.69206e-14)
(5.88722e-12 -4200 -5.69206e-14)
(5.17164e-12 -4200 -1.13841e-13)
(3.57787e-13 -4200 5.69206e-14)
(2.43945e-12 -4200 5.69206e-14)
(-3.1225e-12 -4200 -1.13841e-13)
(-1.36609e-12 -4200 1.13841e-13)
(-3.1225e-12 -4200 -5.69206e-14)
(-1.04083e-12 -4200 -5.69206e-14)
(-4.4886e-12 -4200 -5.69206e-14)
(3.77302e-12 -4200 -5.69206e-14)
(4.16334e-12 -4200 -5.69206e-14)
(-9.69277e-12 -4200 1.13841e-13)
(-2.79724e-12 -4200 -2.27682e-13)
(5.56196e-12 -4200 2.58845e-29)
(-4.84638e-12 -4200 -5.69206e-14)
(9.69277e-12 -4200 -1.13841e-13)
(-4.16334e-12 -4200 -5.69206e-14)
(6.96058e-12 -4200 -1.13841e-13)
(5.52943e-12 -4200 -1.13841e-13)
(1.52873e-11 -4200 1.70762e-13)
(-6.245e-12 -4200 -1.75231e-28)
(2.73219e-12 -4200 -5.69206e-14)
(2.76472e-12 -4200 3.12579e-28)
(9.00972e-12 -4200 5.69206e-14)
(1.52547e-11 -4200 5.69206e-14)
(1.45717e-11 -4200 -1.02091e-28)
(1.02457e-20 -4200 -1.94134e-29)
(9.00972e-12 -4200 -8.46356e-29)
(7.64363e-12 -4200 -5.69206e-14)
(-4.13081e-12 -4200 1.13841e-13)
(-6.83047e-13 -4200 5.69206e-14)
(-3.25261e-14 -4200 5.69206e-14)
(9.69277e-12 -4200 2.27682e-13)
(2.08167e-12 -4200 1.13841e-13)
(2.4362e-11 -4200 -5.69206e-14)
(-4.84638e-12 -4200 5.69206e-14)
(-1.25551e-11 -4200 2.27682e-13)
(7.481e-13 -4200 5.69206e-14)
(-150 -4400 -1.19262e-13)
(-150 -4400 2.41574e-13)
(1.46042e-11 -4200 -5.25209e-28)
(-1.17419e-11 -4200 -2.27682e-13)
(-1.1872e-11 -4200 -5.69206e-14)
(-1.43115e-12 -4200 1.13841e-13)
(-8.94467e-12 -4200 5.69206e-14)
(-150 -4200 -4.57398e-15)
(-150 -4200 -1.16891e-13)
(-4.78133e-12 -4200 5.69206e-14)
(7.57857e-12 -4200 -5.69206e-14)
(-150 -4200 1.13841e-13)
(-150 -4200 3.04932e-15)
(4.16334e-12 -4200 1.70762e-13)
(-150 -4200 2.87652e-13)
(-150 -4200 1.13841e-13)
(-150 -4200 -4.57398e-15)
(-300 -4200 3.04932e-15)
(-150 -4200 -5.38713e-14)
(-150 -4200 -6.09864e-15)
(-300 -4200 -5.0822e-14)
(-300 -4200 -5.38713e-14)
(-300 -4200 1.07743e-13)
(-300 -4200 -1.64663e-13)
(-300 -4200 -1.10792e-13)
(-450 -4000 5.42101e-14)
(-450 -4200 5.69206e-14)
(-450 -4000 3.16113e-13)
(-600 -4200 -6.30193e-14)
(-600 -4200 -3.86247e-14)
(-600 -4200 1.07743e-13)
(-750 -4000 -1.52466e-14)
(-900 -4000 8.1654e-14)
(-750 -4000 4.65868e-14)
(-900 -4000 -1.71778e-13)
(-1050 -4000 1.29765e-13)
(-1050 -3800 2.13452e-14)
(-1200 -4000 4.20128e-14)
(-1200 -4000 5.42101e-15)
(-1350 -3800 -1.16721e-13)
(-1500 -3800 -6.67462e-14)
(-1650 -3800 1.53313e-13)
(-1650 -4000 1.79402e-13)
(-1800 -3800 3.32037e-14)
(-1950 -4000 3.96411e-14)
(-2100 -3800 -8.1654e-14)
(-2250 -3600 -1.17399e-13)
(-2400 -3800 -1.00289e-13)
(-2550 -3600 1.03677e-13)
(-2700 -3800 -1.85331e-13)
(-3000 -3600 -9.75782e-14)
(-3000 -3600 2.01255e-13)
(-3300 -3600 -2.80537e-13)
(-3450 -3600 -1.113e-13)
(-3600 -3600 1.95156e-13)
(-3900 -3400 -3.30004e-13)
(-4200 -3600 -9.75782e-14)
(-4500 -3600 8.84302e-14)
(-4500 -3400 -2.29038e-13)
(-4800 -3400 -9.21572e-14)
(-5250 -3400 -3.15096e-14)
(-5400 -3400 -6.36969e-14)
(-5700 -3400 -3.42201e-14)
(-6000 -3400 9.08019e-14)
(-6300 -3200 2.06676e-14)
(-6600 -3200 -4.33681e-14)
(-6900 -3200 -2.00239e-13)
(-7350 -3200 7.47083e-14)
(-7650 -3200 1.21126e-13)
(-8100 -3000 -8.23316e-14)
(-8400 -3000 -1.30104e-13)
(-8850 -3000 4.92973e-14)
(-9300 -3000 -2.83586e-21)
(-9750 -3000 -1.57548e-13)
(-10200 -3000 1.66696e-13)
(-10650 -2800 1.84145e-13)
(-11250 -2800 -3.43048e-13)
(-11700 -2800 -1.56871e-13)
(-12300 -2800 2.12097e-13)
(-12900 -2600 -3.22889e-13)
(-13500 -2600 1.01983e-13)
(-14100 -2400 3.32376e-13)
(-14850 -2400 -6.03765e-13)
(-15600 -2200 -2.98156e-14)
(-16350 -2200 6.0512e-13)
(-17100 -2200 -8.43645e-14)
(-18000 -2000 -4.47233e-13)
(-18900 -1800 5.76321e-13)
(-19800 -1800 1.7686e-13)
(-20850 -1600 -1.90244e-13)
(-21900 -1400 -4.83148e-13)
(-22800 -1200 1.99222e-13)
(-23550 -1000 4.6519e-13)
(-24000 -800 1.0842e-14)
(-23400 -400 -9.62229e-13)
(-21750 -1.53686e-12 2.21076e-13)
(-19200 4.87891e-13 7.80626e-13)
(-15900 2.2212e-10 -9.69683e-13)
(-12300 5.10627e-10 1.25022e-13)
(-5250 -7.37122e-11 -5.33631e-14)
(-7.18826e-12 -5400 1.36848e-28)
(4.87891e-12 -5400 -7.31836e-14)
(1.30104e-13 -5400 -1.3538e-28)
(5.20417e-13 -5400 -2.19551e-13)
(3.31766e-12 -5400 1.00498e-28)
(-4.55365e-13 -5400 -7.31836e-14)
(-5.07407e-12 -5400 -7.31836e-14)
(1.95156e-13 -5400 7.31836e-14)
(3.25261e-13 -5400 2.19551e-13)
(-2.9924e-12 -5400 5.42197e-29)
(-1.30104e-13 -5400 1.46367e-13)
(-2.60209e-12 -5400 7.31836e-14)
(-8.71699e-12 -5400 -7.31836e-14)
(5.59448e-12 -5400 4.49281e-28)
(-1.04083e-12 -5400 2.19551e-13)
(-3.83808e-12 -5400 -3.20354e-28)
(2.08167e-12 -5400 -7.31836e-14)
(-1.04083e-12 -5400 -2.02551e-28)
(6.96058e-12 -5400 -2.19551e-13)
(-4.25985e-27 -5400 7.14113e-29)
(2.40693e-12 -5400 7.31836e-14)
(-4.16334e-12 -5400 -7.31836e-14)
(7.15573e-13 -5400 7.31836e-14)
(2.73219e-12 -5400 -1.46367e-13)
(2.08167e-12 -5400 -1.46367e-13)
(-2.73219e-12 -5400 -1.46367e-13)
(1.21647e-11 -5400 -2.19551e-13)
(-9.75782e-12 -5400 1.46367e-13)
(6.50521e-13 -5400 -7.31836e-14)
(-8.32667e-12 -5400 -7.31836e-14)
(-1.04083e-11 -5400 -1.46367e-13)
(-6.57027e-12 -5400 7.31836e-14)
(1.32706e-11 -5400 -3.65918e-13)
(4.4886e-12 -5400 1.46367e-13)
(-7.35089e-12 -5400 9.98402e-29)
(-3.25261e-13 -5400 7.31836e-14)
(-5.91974e-12 -5400 7.31836e-14)
(-3.25261e-13 -5400 -8.79364e-28)
(6.245e-12 -5400 -1.5808e-28)
(-4.4886e-12 -5400 -7.31836e-14)
(3.51282e-12 -5400 -7.31836e-14)
(2.73219e-12 -5400 -4.02843e-29)
(-1.75641e-12 -5400 -1.46367e-13)
(-3.83808e-12 -5400 -1.46367e-13)
(-1.42464e-11 -5400 7.31836e-14)
(-6.47112e-27 -5400 2.3296e-28)
(-1.48969e-11 -5400 2.92735e-13)
(3.51282e-12 -5400 3.57056e-29)
(-5.55112e-12 -5600 -2.27682e-13)
(-150 -5600 -7.74188e-14)
(-150 -5600 -7.43695e-14)
(-3.51282e-12 -5400 7.31836e-14)
(-1.07336e-11 -5400 -2.19551e-13)
(9.43256e-12 -5400 -1.46367e-13)
(4.16334e-12 -5400 -3.65918e-13)
(-1.75641e-12 -5400 2.19551e-13)
(4.16334e-12 -5400 7.31836e-14)
(-150 -5400 -3.61344e-13)
(-150 -5400 1.44843e-13)
(9.43256e-12 -5400 9.15202e-29)
(-2.25731e-11 -5400 -2.19551e-13)
(-150 -5400 2.18026e-13)
(-150 -5400 -2.19551e-13)
(-3.69977e-27 -5400 7.31836e-14)
(-150 -5400 7.01343e-14)
(-150 -5400 -1.49417e-13)
(-150 -5400 7.47083e-14)
(-300 -5400 7.01343e-14)
(-150 -5200 -6.89485e-14)
(-150 -5400 7.6233e-14)
(-300 -5400 7.01343e-14)
(-300 -5400 -2.226e-13)
(-300 -5400 -1.46367e-13)
(-300 -5400 -6.09864e-15)
(-300 -5400 9.14796e-15)
(-450 -5400 -5.48877e-14)
(-450 -5200 -1.4552e-13)
(-450 -5400 -1.60089e-13)
(-600 -5400 7.31836e-14)
(-600 -5200 -6.43745e-14)
(-600 -5200 -6.09864e-15)
(-600 -5400 6.7085e-14)
(-750 -5200 -1.56193e-13)
(-900 -5200 -7.04731e-14)
(-900 -5200 1.6839e-13)
(-900 -5000 9.14796e-15)
(-1050 -5200 -2.7122e-13)
(-1200 -5000 -1.11131e-13)
(-1200 -5000 9.89334e-14)
(-1350 -5200 -2.74439e-14)
(-1500 -5000 1.50772e-13)
(-1650 -5000 5.09914e-14)
(-1650 -4800 -1.15366e-13)
(-1800 -5000 -1.28749e-14)
(-1950 -4800 -7.06425e-14)
(-1950 -5000 -1.07404e-13)
(-2250 -4800 -1.07234e-13)
(-2400 -5000 1.5992e-13)
(-2550 -4800 1.32137e-14)
(-2700 -4800 -9.2496e-14)
(-2850 -4800 2.82062e-13)
(-3150 -4600 -6.40357e-14)
(-3300 -4800 -2.30732e-13)
(-3450 -4600 3.27294e-13)
(-3600 -4800 -1.30104e-13)
(-3900 -4600 -2.03966e-13)
(-4200 -4600 2.72406e-13)
(-4200 -4400 -1.02322e-13)
(-4500 -4400 -4.57398e-14)
(-4950 -4400 1.78893e-13)
(-5100 -4400 1.03677e-13)
(-5400 -4200 1.11808e-13)
(-5700 -4400 -5.45489e-14)
(-5850 -4200 2.5411e-15)
(-6300 -4200 1.42302e-14)
(-6600 -4000 -2.4259e-13)
(-6900 -4200 -5.69206e-14)
(-7350 -4000 2.98833e-13)
(-7650 -4000 -1.6263e-13)
(-7950 -4000 -5.42101e-14)
(-8400 -3800 2.56141e-21)
(-8850 -4000 -2.3412e-13)
(-9300 -3800 9.45289e-14)
(-9750 -3800 1.48653e-21)
(-10050 -3600 -1.50941e-13)
(-10650 -3600 5.94617e-14)
(-11250 -3600 1.71524e-21)
(-11700 -3400 -1.18923e-13)
(-12150 -3400 7.74188e-14)
(-12750 -3400 -2.13113e-13)
(-13500 -3200 -3.6829e-13)
(-14100 -3200 1.32137e-14)
(-14700 -3200 5.78354e-13)
(-15450 -3000 1.21973e-13)
(-16350 -2800 3.79471e-14)
(-17100 -2600 -1.73811e-13)
(-17850 -2600 -2.16671e-13)
(-18750 -2400 1.58056e-13)
(-19800 -2400 1.36203e-13)
(-20700 -2000 -2.64613e-13)
(-21600 -1800 -6.83047e-13)
(-22650 -1400 4.79421e-13)
(-23400 -1200 6.64751e-13)
(-23700 -800 -4.92634e-13)
(-23100 -400 -4.80437e-13)
(-21600 -200 2.24972e-13)
(-19200 -5.34371e-10 -1.95156e-13)
(-15900 8.78201e-21 -2.4242e-21)
(-12300 5.85469e-13 1.25022e-13)
(-5250 6.83047e-12 3.70281e-28)
(4.59702e-12 -6800 -9.21572e-14)
(2.73219e-12 -6800 9.21572e-14)
(-6.98226e-12 -6800 1.84314e-13)
(-2.55872e-12 -6800 9.21572e-14)
(1.51788e-12 -6800 2.93358e-28)
(-5.33427e-12 -6800 -1.84314e-13)
(1.38778e-12 -6800 -1.84314e-13)
(-2.34188e-12 -6800 9.21572e-14)
(-4.98733e-12 -6800 -1.84314e-13)
(1.51788e-12 -6800 -1.84314e-13)
(4.74881e-12 -6600 4.36402e-29)
(4.29344e-12 -6600 8.72805e-29)
(4.22839e-12 -6600 4.72108e-28)
(-4.22839e-12 -6600 -8.94467e-14)
(-5.33427e-12 -6600 1.19927e-29)
(6.37511e-12 -6600 9.81834e-29)
(3.25261e-12 -6600 -5.23683e-28)
(-5.46438e-12 -6600 -8.94467e-14)
(-9.1073e-13 -6600 -1.78893e-13)
(-4.29344e-12 -6600 8.94467e-14)
(-1.27502e-11 -6600 8.94467e-14)
(1.70437e-11 -6600 8.94467e-14)
(5.39933e-12 -6600 1.78893e-13)
(-2.08167e-12 -6600 1.01689e-27)
(-2.14672e-12 -6600 -1.78893e-13)
(6.1149e-12 -6600 1.00604e-27)
(-1.46367e-11 -6600 -8.94467e-14)
(2.01662e-12 -6600 -8.5958e-29)
(-6.50521e-14 -6600 2.03378e-28)
(8.32667e-12 -6600 -1.72871e-28)
(1.88651e-11 -6600 5.18985e-28)
(4.22839e-12 -6600 2.94575e-28)
(-6.37511e-12 -6600 5.60348e-28)
(-8.32667e-12 -6600 8.94467e-14)
(8.39172e-12 -6600 1.9617e-28)
(-4.22839e-12 -6600 -8.94467e-14)
(-8.32667e-12 -6800 -1.84314e-13)
(-1.60896e-11 -6800 9.21572e-14)
(-1.38778e-11 -6800 3.98128e-28)
(4.42354e-12 -6800 1.7811e-28)
(-1.05384e-11 -6800 9.21572e-14)
(-8.32667e-12 -6800 -7.64121e-28)
(4.42354e-12 -6800 1.84314e-13)
(5.63785e-13 -6800 1.84314e-13)
(6.1149e-12 -6800 9.21572e-14)
(-8.89046e-12 -6800 -1.91699e-28)
(-9.41087e-12 -6800 -1.84314e-13)
(-150 -6800 -9.67312e-14)
(-150 -6800 -9.82558e-14)
(3.90313e-12 -6800 -1.84314e-13)
(6.17995e-12 -6600 1.78893e-13)
(4.29344e-12 -6600 8.94467e-14)
(4.16334e-12 -6600 4.57601e-28)
(4.16334e-12 -6600 8.94467e-14)
(1.04734e-11 -6600 -8.94467e-14)
(-4.29344e-12 -6600 -3.57787e-13)
(-3.33934e-12 -6800 3.68629e-13)
(-150 -6800 -9.52065e-14)
(-150 -6600 4.57398e-15)
(-4.16334e-12 -6600 1.78893e-13)
(2.29634e-11 -6600 -8.94467e-14)
(-150 -6800 -3.68629e-13)
(-150 -6600 6.86099e-23)
(-1.26201e-11 -6600 1.78893e-13)
(-150 -6800 -9.36818e-14)
(-150 -6600 3.57787e-13)
(-150 -6600 6.86096e-23)
(-150 -6600 -1.52466e-15)
(-150 -6600 1.81943e-13)
(-300 -6600 -6.09864e-15)
(-300 -6600 -1.84992e-13)
(-300 -6600 1.72795e-13)
(-300 -6600 -1.75844e-13)
(-300 -6600 1.01644e-13)
(-300 -6600 1.78893e-13)
(-300 -6600 8.3348e-14)
(-450 -6400 -4.57398e-15)
(-600 -6600 9.55453e-14)
(-450 -6400 1.73472e-13)
(-450 -6400 -1.64324e-13)
(-750 -6400 7.6233e-15)
(-750 -6400 1.42979e-13)
(-750 -6400 -1.65849e-13)
(-750 -6400 1.96342e-13)
(-750 -6400 8.67362e-14)
(-1050 -6400 4.40457e-14)
(-1050 -6400 8.67362e-14)
(-1050 -6400 -1.20109e-13)
(-1350 -6200 5.65818e-14)
(-1350 -6400 1.5975e-13)
(-1350 -6200 4.11659e-22)
(-1500 -6200 -8.40257e-14)
(-1650 -6000 1.45859e-13)
(-1800 -6200 2.15485e-13)
(-1950 -6000 -1.22989e-13)
(-2100 -6000 1.0266e-13)
(-2250 -6000 8.13152e-14)
(-2400 -6000 -5.69206e-14)
(-2400 -6000 1.0571e-13)
(-2700 -5800 5.11608e-14)
(-2850 -5800 -4.96361e-14)
(-3000 -5800 -7.86047e-14)
(-3300 -5600 1.9414e-13)
(-3450 -5600 1.10961e-13)
(-3600 -5600 -3.65918e-14)
(-3750 -5600 -3.81165e-14)
(-4050 -5400 4.11658e-14)
(-4350 -5400 -7.31836e-14)
(-4500 -5600 1.51788e-13)
(-4800 -5400 3.78099e-27)
(-5100 -5400 1.46367e-13)
(-5400 -5400 7.31836e-14)
(-5700 -5200 -2.69356e-13)
(-5850 -5200 8.14846e-14)
(-6150 -5200 -9.37674e-22)
(-6600 -5000 1.34848e-13)
(-6900 -5200 2.11081e-13)
(-7200 -5000 -5.42101e-15)
(-7650 -4800 -6.50521e-14)
(-7950 -4800 9.65618e-14)
(-8400 -4800 -2.35814e-13)
(-8850 -4800 2.49028e-14)
(-9150 -4600 9.30042e-14)
(-9600 -4600 -2.30393e-13)
(-10050 -4400 4.25211e-14)
(-10650 -4600 2.78843e-13)
(-11100 -4200 -2.8257e-13)
(-11550 -4200 -4.05559e-13)
(-12300 -4000 3.75066e-13)
(-12750 -4200 -7.26754e-14)
(-13350 -4000 -5.15504e-13)
(-14100 -3800 8.19589e-13)
(-14700 -3800 2.98833e-13)
(-15300 -3800 -4.65529e-13)
(-16050 -3600 1.63139e-13)
(-16950 -3400 -5.62938e-13)
(-17850 -3200 -6.3104e-13)
(-18750 -3000 3.81165e-13)
(-19500 -2800 3.79471e-14)
(-20400 -2400 -6.50521e-14)
(-21450 -2200 2.77657e-13)
(-22350 -1800 -1.78385e-13)
(-23100 -1400 1.89735e-14)
(-23400 -800 2.48689e-13)
(-22950 -400 -2.22431e-13)
(-21450 -200 -6.07269e-27)
(-19050 8.78204e-13 1.93632e-13)
(-15900 -2.19486e-10 -1.61614e-13)
(-12300 3.38466e-10 -1.06722e-26)
(-5250 7.79812e-11 5.33631e-14)
(-6.50521e-14 -8000 2.1684e-13)
(4.85723e-12 -8000 2.1684e-13)
(1.73472e-13 -8000 3.25261e-13)
(3.46945e-13 -8000 -3.70281e-39)
(3.46945e-13 -8000 3.8557e-29)
(8.84709e-12 -8000 -2.1684e-13)
(-4.51028e-12 -8000 1.0842e-13)
(-1.04083e-12 -8000 -2.1684e-13)
(1.70003e-11 -8000 -3.25261e-13)
(150 -8000 2.12266e-13)
(150 -8000 -3.04932e-15)
(5.20417e-12 -8000 1.0842e-13)
(-9.19403e-12 -8000 -2.1684e-13)
(-1.17961e-11 -8000 2.1684e-13)
(9.36751e-12 -8000 -3.25261e-13)
(3.64292e-12 -8000 -3.25261e-13)
(4.16334e-12 -8000 3.25261e-13)
(-3.46945e-13 -8000 -3.25261e-13)
(9.71445e-12 -8000 2.1684e-13)
(-6.41848e-12 -8000 1.0842e-13)
(2.77556e-12 -8000 -3.25261e-13)
(-5.37764e-12 -8000 -4.68386e-28)
(-3.98986e-12 -8000 2.1684e-13)
(5.20417e-12 -8000 1.0842e-13)
(2.94903e-12 -8000 1.0842e-13)
(-5.89806e-12 -8000 3.25261e-13)
(2.1684e-11 -8000 1.0842e-13)
(-1.85615e-11 -8000 5.36025e-28)
(-7.97973e-12 -8000 -1.0842e-13)
(-3.1225e-12 -8000 1.0842e-13)
(-1.09288e-11 -8000 2.1684e-13)
(-5.72459e-12 -8000 1.0842e-13)
(2.42861e-12 -8000 3.25261e-13)
(5.89806e-12 -8000 -2.1684e-13)
(-5.72459e-12 -8000 1.0842e-13)
(-150 -8000 1.02322e-13)
(-150 -8000 4.57398e-15)
(4.16334e-12 -8000 1.0842e-13)
(1.73472e-13 -8000 1.0842e-13)
(1.73472e-13 -8000 1.0842e-13)
(3.98986e-12 -8000 2.1684e-13)
(4.16334e-12 -8000 1.0842e-13)
(3.98986e-12 -8000 4.33681e-13)
(-2.60209e-12 -8000 2.1684e-13)
(-7.97973e-12 -8000 2.1684e-13)
(3.1225e-12 -8000 3.06302e-28)
(2.77556e-12 -8000 -2.1684e-13)
(5.0307e-12 -8000 9.86076e-29)
(-7.15573e-13 -7800 4.22839e-13)
(-1.34007e-11 -7800 -2.61373e-28)
(-2.10118e-11 -7800 7.57131e-28)
(-2.53703e-12 -7800 3.72552e-28)
(-3.29597e-12 -8000 -1.0842e-13)
(7.80626e-12 -8000 1.0842e-13)
(-5.89806e-12 -8000 3.25261e-13)
(-150 -8000 -4.30632e-13)
(-150 -8000 -1.03846e-13)
(-3.1225e-12 -8000 2.1684e-13)
(-1.84748e-11 -7800 -3.17129e-13)
(2.53703e-12 -7800 -8.0621e-29)
(-150 -8000 2.09217e-13)
(-150 -8000 -3.25261e-13)
(-8.52183e-12 -7800 1.0571e-13)
(-150 -8000 -2.13791e-13)
(-150 -8000 -4.33681e-13)
(-9.2374e-12 -7800 2.11419e-13)
(-150 -8000 -1.12994e-13)
(-300 -7800 -1.0266e-13)
(-150 -8000 -2.15316e-13)
(-150 -7800 -3.04932e-15)
(-300 -7800 -1.0266e-13)
(-300 -7800 -3.04932e-15)
(-300 -7800 4.1979e-13)
(-300 -7800 -2.05321e-13)
(-300 -7800 -3.07981e-13)
(-300 -7800 1.11808e-13)
(-450 -7800 1.01136e-13)
(-450 -7800 2.06845e-13)
(-450 -7600 -1.37219e-14)
(-600 -7800 -1.11808e-13)
(-600 -7800 -2.98833e-13)
(-600 -7600 -1.82959e-14)
(-750 -7600 -1.52466e-14)
(-900 -7400 -1.73134e-13)
(-900 -7600 -8.47033e-14)
(-900 -7600 -1.9685e-13)
(-1050 -7400 1.79232e-13)
(-1050 -7600 1.24344e-13)
(-1200 -7600 -1.93801e-13)
(-1350 -7400 1.59412e-13)
(-1350 -7400 -1.27733e-13)
(-1500 -7400 -8.50421e-14)
(-1650 -7400 1.67713e-14)
(-1800 -7200 1.7686e-13)
(-1800 -7200 1.82959e-14)
(-1950 -7200 2.14977e-13)
(-2250 -7200 2.69865e-13)
(-2400 -7000 -1.65341e-13)
(-2400 -7000 -7.31839e-22)
(-2550 -7000 1.11978e-13)
(-2850 -6800 -1.55346e-13)
(-3000 -7000 6.09864e-14)
(-3150 -6800 2.44454e-13)
(-3450 -6800 -2.41404e-13)
(-3600 -6600 5.28549e-14)
(-3750 -6600 1.92107e-13)
(-4050 -6600 -1.37728e-13)
(-4350 -6600 4.42151e-14)
(-4500 -6400 8.67362e-14)