/*--------------------------------*- C++ -*----------------------------------*\
| =========                 |                                                 |
| \\      /  F ield         | foam-extend: Open Source CFD                    |
|  \\    /   O peration     | Version:     4.0                                |
|   \\  /    A nd           | Web:         http://www.foam-extend.org         |
|    \\/     M anipulation  |                                                 |
\*---------------------------------------------------------------------------*/
FoamFile
{
    version     2.0;
    format      ascii;
    class       volScalarField;
    location    "205.9";
    object      resT;
}
// * * * * * * * * * * * * * * * * * * * * * * * * * * * * * * * * * * * * * //

dimensions      [0 0 0 1 0 0 0];

internalField   nonuniform List<scalar> 
6000
(
-364.661
-364.661
-364.661
-364.661
-364.661
-364.661
-364.66
-364.66
-364.66
-364.66
-364.66
-364.66
-364.66
-364.66
-364.659
-364.659
-364.659
-364.659
-364.659
-364.659
-364.659
-364.659
-364.659
-364.659
-364.659
-364.659
-364.659
-364.659
-364.659
-364.659
-364.658
-364.658
-364.658
-364.658
-364.657
-364.657
-364.657
-364.656
-364.655
-364.655
-364.654
-364.653
-364.652
-364.65
-364.649
-364.647
-364.645
-364.642
-364.64
-364.637
-364.633
-364.629
-364.625
-364.619
-364.613
-364.607
-364.599
-364.591
-364.581
-364.57
-364.558
-364.544
-364.529
-364.511
-364.492
-364.47
-364.446
-364.419
-364.388
-364.355
-364.317
-364.276
-364.23
-364.179
-364.123
-364.061
-363.993
-363.918
-363.835
-363.744
-363.645
-363.536
-363.417
-363.286
-363.144
-362.989
-362.821
-362.637
-362.438
-362.223
-361.989
-361.736
-361.463
-361.168
-360.85
-360.507
-360.138
-359.742
-359.316
-358.86
-358.371
-357.847
-357.286
-356.686
-356.046
-355.362
-354.633
-353.856
-353.028
-352.146
-351.208
-350.21
-349.15
-348.022
-346.825
-345.553
-344.203
-342.769
-341.248
-339.633
-337.918
-336.098
-334.166
-332.114
-329.933
-327.616
-325.151
-322.527
-319.732
-316.752
-313.571
-310.171
-306.531
-302.628
-298.434
-293.915
-289.035
-283.749
-278.001
-271.725
-264.84
-257.24
-248.794
-239.33
-228.609
-216.289
-201.845
-184.385
-162.222
-131.447
-364.526
-364.526
-364.526
-364.526
-364.525
-364.525
-364.525
-364.525
-364.525
-364.525
-364.524
-364.524
-364.524
-364.524
-364.524
-364.524
-364.524
-364.524
-364.524
-364.524
-364.524
-364.523
-364.523
-364.523
-364.523
-364.523
-364.523
-364.523
-364.523
-364.523
-364.523
-364.523
-364.523
-364.522
-364.522
-364.522
-364.521
-364.521
-364.52
-364.519
-364.518
-364.517
-364.516
-364.515
-364.513
-364.511
-364.509
-364.507
-364.504
-364.501
-364.498
-364.494
-364.489
-364.484
-364.478
-364.471
-364.464
-364.455
-364.446
-364.435
-364.422
-364.409
-364.393
-364.376
-364.356
-364.335
-364.31
-364.283
-364.253
-364.219
-364.182
-364.141
-364.095
-364.044
-363.988
-363.926
-363.858
-363.782
-363.7
-363.609
-363.509
-363.4
-363.282
-363.151
-363.009
-362.855
-362.687
-362.504
-362.306
-362.091
-361.858
-361.605
-361.333
-361.039
-360.722
-360.38
-360.012
-359.617
-359.192
-358.736
-358.248
-357.725
-357.165
-356.567
-355.928
-355.245
-354.517
-353.741
-352.914
-352.034
-351.097
-350.1
-349.041
-347.915
-346.719
-345.448
-344.099
-342.667
-341.147
-339.534
-337.821
-336.002
-334.072
-332.021
-329.842
-327.526
-325.063
-322.441
-319.648
-316.669
-313.489
-310.091
-306.452
-302.55
-298.357
-293.841
-288.963
-283.679
-277.933
-271.66
-264.777
-257.182
-248.739
-239.273
-228.553
-216.235
-201.792
-184.333
-162.17
-131.395
-364.255
-364.255
-364.255
-364.254
-364.254
-364.254
-364.254
-364.254
-364.254
-364.253
-364.253
-364.253
-364.253
-364.253
-364.253
-364.253
-364.253
-364.253
-364.252
-364.252
-364.252
-364.252
-364.252
-364.252
-364.252
-364.252
-364.252
-364.252
-364.252
-364.252
-364.252
-364.252
-364.251
-364.251
-364.251
-364.25
-364.25
-364.249
-364.249
-364.248
-364.247
-364.246
-364.245
-364.244
-364.242
-364.24
-364.238
-364.236
-364.233
-364.23
-364.227
-364.223
-364.218
-364.213
-364.207
-364.2
-364.193
-364.184
-364.174
-364.163
-364.151
-364.137
-364.122
-364.105
-364.085
-364.063
-364.039
-364.012
-363.982
-363.948
-363.911
-363.87
-363.824
-363.773
-363.717
-363.655
-363.586
-363.511
-363.429
-363.338
-363.238
-363.129
-363.01
-362.88
-362.738
-362.584
-362.416
-362.233
-362.035
-361.82
-361.587
-361.334
-361.063
-360.771
-360.455
-360.115
-359.749
-359.355
-358.932
-358.479
-357.992
-357.471
-356.914
-356.317
-355.68
-355
-354.274
-353.501
-352.676
-351.798
-350.864
-349.87
-348.813
-347.69
-346.496
-345.229
-343.882
-342.453
-340.936
-339.325
-337.615
-335.8
-333.872
-331.825
-329.649
-327.337
-324.876
-322.258
-319.468
-316.494
-313.318
-309.924
-306.289
-302.391
-298.202
-293.69
-288.816
-283.535
-277.794
-271.525
-264.645
-257.053
-248.614
-239.157
-228.441
-216.123
-201.682
-184.223
-162.06
-131.285
-363.847
-363.847
-363.847
-363.847
-363.847
-363.846
-363.846
-363.846
-363.846
-363.846
-363.846
-363.845
-363.845
-363.845
-363.845
-363.845
-363.845
-363.845
-363.845
-363.845
-363.845
-363.845
-363.845
-363.845
-363.845
-363.845
-363.845
-363.844
-363.844
-363.844
-363.844
-363.844
-363.844
-363.843
-363.843
-363.843
-363.842
-363.842
-363.841
-363.84
-363.839
-363.838
-363.837
-363.836
-363.834
-363.833
-363.831
-363.828
-363.826
-363.823
-363.819
-363.815
-363.81
-363.805
-363.799
-363.793
-363.785
-363.776
-363.767
-363.756
-363.744
-363.73
-363.714
-363.697
-363.678
-363.656
-363.632
-363.604
-363.574
-363.541
-363.503
-363.462
-363.416
-363.365
-363.309
-363.247
-363.179
-363.104
-363.021
-362.93
-362.831
-362.722
-362.603
-362.472
-362.331
-362.176
-362.008
-361.826
-361.627
-361.412
-361.179
-360.927
-360.656
-360.363
-360.048
-359.708
-359.344
-358.948
-358.528
-358.071
-357.588
-357.07
-356.516
-355.922
-355.289
-354.612
-353.889
-353.119
-352.298
-351.424
-350.493
-349.503
-348.45
-347.331
-346.141
-344.878
-343.536
-342.111
-340.598
-338.992
-337.286
-335.475
-333.552
-331.509
-329.338
-327.03
-324.575
-321.961
-319.176
-316.206
-313.035
-309.646
-306.017
-302.124
-297.941
-293.434
-288.566
-283.292
-277.557
-271.295
-264.422
-256.835
-248.402
-238.947
-228.23
-215.915
-201.478
-184.019
-161.856
-131.081
-363.302
-363.302
-363.302
-363.301
-363.301
-363.301
-363.301
-363.301
-363.301
-363.3
-363.3
-363.3
-363.3
-363.3
-363.3
-363.3
-363.3
-363.3
-363.299
-363.299
-363.299
-363.299
-363.299
-363.299
-363.299
-363.299
-363.299
-363.299
-363.299
-363.299
-363.299
-363.299
-363.298
-363.298
-363.298
-363.297
-363.297
-363.296
-363.296
-363.295
-363.294
-363.293
-363.292
-363.291
-363.289
-363.287
-363.285
-363.283
-363.28
-363.277
-363.274
-363.27
-363.265
-363.26
-363.254
-363.247
-363.24
-363.231
-363.221
-363.21
-363.198
-363.185
-363.169
-363.152
-363.132
-363.11
-363.086
-363.059
-363.029
-362.996
-362.958
-362.917
-362.871
-362.82
-362.764
-362.702
-362.634
-362.558
-362.476
-362.385
-362.286
-362.177
-362.058
-361.927
-361.785
-361.631
-361.463
-361.28
-361.082
-360.867
-360.634
-360.382
-360.111
-359.818
-359.502
-359.163
-358.799
-358.403
-357.983
-357.527
-357.043
-356.529
-355.971
-355.382
-354.753
-354.08
-353.363
-352.597
-351.781
-350.912
-349.986
-349.001
-347.954
-346.84
-345.656
-344.398
-343.061
-341.642
-340.135
-338.534
-336.835
-335.03
-333.113
-331.076
-328.912
-326.61
-324.161
-321.554
-318.775
-315.813
-312.649
-309.267
-305.645
-301.761
-297.586
-293.087
-288.228
-282.962
-277.236
-270.982
-264.117
-256.54
-248.114
-238.665
-227.953
-215.644
-201.211
-183.753
-161.59
-130.815
-362.618
-362.617
-362.617
-362.617
-362.617
-362.617
-362.617
-362.616
-362.616
-362.616
-362.616
-362.616
-362.616
-362.616
-362.615
-362.615
-362.615
-362.615
-362.615
-362.615
-362.615
-362.615
-362.615
-362.615
-362.615
-362.615
-362.615
-362.615
-362.615
-362.615
-362.614
-362.614
-362.614
-362.614
-362.613
-362.613
-362.613
-362.612
-362.611
-362.611
-362.61
-362.609
-362.608
-362.606
-362.605
-362.603
-362.601
-362.599
-362.596
-362.593
-362.589
-362.585
-362.58
-362.575
-362.569
-362.563
-362.555
-362.547
-362.537
-362.526
-362.514
-362.5
-362.484
-362.467
-362.448
-362.426
-362.402
-362.375
-362.344
-362.311
-362.274
-362.232
-362.186
-362.135
-362.079
-362.018
-361.949
-361.874
-361.791
-361.701
-361.601
-361.492
-361.374
-361.243
-361.101
-360.947
-360.779
-360.596
-360.398
-360.183
-359.95
-359.698
-359.427
-359.134
-358.818
-358.479
-358.115
-357.719
-357.299
-356.843
-356.359
-355.846
-355.287
-354.699
-354.069
-353.397
-352.685
-351.926
-351.116
-350.253
-349.334
-348.355
-347.314
-346.207
-345.03
-343.779
-342.449
-341.037
-339.538
-337.945
-336.253
-334.456
-332.546
-330.517
-328.361
-326.067
-323.627
-321.028
-318.259
-315.305
-312.15
-308.777
-305.164
-301.288
-297.122
-292.634
-287.785
-282.53
-276.813
-270.57
-263.718
-256.152
-247.738
-238.3
-227.598
-215.29
-200.855
-183.399
-161.237
-130.461
-361.792
-361.792
-361.792
-361.792
-361.791
-361.791
-361.791
-361.791
-361.791
-361.791
-361.791
-361.79
-361.79
-361.79
-361.79
-361.79
-361.79
-361.79
-361.79
-361.79
-361.79
-361.79
-361.79
-361.79
-361.79
-361.79
-361.789
-361.789
-361.789
-361.789
-361.789
-361.789
-361.789
-361.788
-361.788
-361.788
-361.787
-361.787
-361.786
-361.785
-361.784
-361.783
-361.782
-361.781
-361.779
-361.778
-361.776
-361.773
-361.77
-361.767
-361.764
-361.76
-361.755
-361.75
-361.744
-361.738
-361.73
-361.722
-361.711
-361.701
-361.689
-361.675
-361.659
-361.642
-361.623
-361.601
-361.577
-361.549
-361.519
-361.486
-361.448
-361.407
-361.361
-361.31
-361.254
-361.192
-361.124
-361.049
-360.966
-360.875
-360.776
-360.667
-360.548
-360.417
-360.276
-360.122
-359.954
-359.771
-359.573
-359.358
-359.125
-358.873
-358.602
-358.309
-357.994
-357.654
-357.29
-356.894
-356.474
-356.018
-355.535
-355.021
-354.463
-353.874
-353.245
-352.573
-351.861
-351.102
-350.3
-349.429
-348.518
-347.547
-346.514
-345.415
-344.247
-343.004
-341.684
-340.28
-338.789
-337.206
-335.523
-333.735
-331.836
-329.816
-327.67
-325.386
-322.956
-320.368
-317.609
-314.666
-311.522
-308.16
-304.559
-300.695
-296.54
-292.063
-287.225
-281.982
-276.279
-270.049
-263.21
-255.658
-247.256
-237.832
-227.144
-214.85
-200.423
-182.97
-160.807
-130.032
-360.823
-360.823
-360.823
-360.823
-360.823
-360.822
-360.822
-360.822
-360.822
-360.822
-360.822
-360.822
-360.822
-360.822
-360.821
-360.821
-360.821
-360.821
-360.821
-360.821
-360.821
-360.821
-360.821
-360.821
-360.821
-360.821
-360.821
-360.821
-360.821
-360.821
-360.82
-360.82
-360.82
-360.82
-360.819
-360.819
-360.818
-360.818
-360.817
-360.816
-360.816
-360.815
-360.813
-360.812
-360.811
-360.809
-360.807
-360.805
-360.802
-360.799
-360.795
-360.791
-360.786
-360.781
-360.775
-360.769
-360.761
-360.753
-360.742
-360.732
-360.72
-360.706
-360.69
-360.673
-360.654
-360.632
-360.608
-360.581
-360.55
-360.517
-360.48
-360.438
-360.392
-360.341
-360.285
-360.223
-360.155
-360.08
-359.997
-359.907
-359.807
-359.698
-359.58
-359.449
-359.307
-359.153
-358.985
-358.802
-358.605
-358.389
-358.156
-357.904
-357.633
-357.341
-357.025
-356.686
-356.322
-355.926
-355.506
-355.051
-354.567
-354.054
-353.495
-352.907
-352.278
-351.606
-350.895
-350.135
-349.333
-348.463
-347.552
-346.591
-345.567
-344.478
-343.319
-342.086
-340.776
-339.383
-337.903
-336.33
-334.658
-332.881
-330.993
-328.985
-326.85
-324.578
-322.16
-319.584
-316.838
-313.907
-310.776
-307.426
-303.838
-299.988
-295.848
-291.386
-286.564
-281.337
-275.65
-269.435
-262.611
-255.073
-246.688
-237.28
-226.602
-214.311
-199.874
-182.411
-160.248
-129.473
-359.708
-359.708
-359.708
-359.708
-359.708
-359.707
-359.707
-359.707
-359.707
-359.707
-359.707
-359.707
-359.707
-359.707
-359.706
-359.706
-359.706
-359.706
-359.706
-359.706
-359.706
-359.706
-359.706
-359.706
-359.706
-359.706
-359.706
-359.706
-359.706
-359.706
-359.705
-359.705
-359.705
-359.705
-359.704
-359.704
-359.703
-359.703
-359.702
-359.701
-359.701
-359.7
-359.698
-359.697
-359.696
-359.694
-359.692
-359.69
-359.687
-359.684
-359.68
-359.676
-359.671
-359.666
-359.66
-359.654
-359.646
-359.638
-359.628
-359.617
-359.605
-359.591
-359.575
-359.558
-359.539
-359.517
-359.493
-359.466
-359.435
-359.402
-359.365
-359.323
-359.277
-359.226
-359.17
-359.109
-359.041
-358.965
-358.883
-358.792
-358.692
-358.583
-358.465
-358.334
-358.193
-358.038
-357.871
-357.688
-357.49
-357.274
-357.042
-356.79
-356.519
-356.227
-355.911
-355.572
-355.208
-354.812
-354.392
-353.937
-353.454
-352.94
-352.382
-351.793
-351.165
-350.493
-349.782
-349.023
-348.221
-347.351
-346.44
-345.479
-344.456
-343.378
-342.231
-341.01
-339.712
-338.331
-336.863
-335.303
-333.644
-331.88
-330.005
-328.011
-325.89
-323.632
-321.228
-318.667
-315.935
-313.019
-309.903
-306.57
-302.998
-299.164
-295.04
-290.595
-285.79
-280.581
-274.911
-268.714
-261.908
-254.389
-246.024
-236.63
-225.964
-213.68
-199.249
-181.789
-159.628
-128.852
-358.444
-358.444
-358.444
-358.443
-358.443
-358.443
-358.443
-358.443
-358.443
-358.442
-358.443
-358.442
-358.442
-358.442
-358.442
-358.442
-358.442
-358.442
-358.442
-358.442
-358.442
-358.442
-358.442
-358.442
-358.442
-358.441
-358.441
-358.441
-358.441
-358.441
-358.441
-358.441
-358.441
-358.44
-358.44
-358.44
-358.439
-358.438
-358.438
-358.437
-358.436
-358.435
-358.434
-358.433
-358.431
-358.43
-358.428
-358.425
-358.423
-358.42
-358.416
-358.412
-358.407
-358.402
-358.396
-358.39
-358.382
-358.374
-358.363
-358.353
-358.341
-358.327
-358.311
-358.294
-358.275
-358.253
-358.229
-358.202
-358.171
-358.138
-358.101
-358.059
-358.013
-357.962
-357.906
-357.845
-357.777
-357.701
-357.619
-357.528
-357.428
-357.319
-357.201
-357.07
-356.929
-356.774
-356.607
-356.424
-356.226
-356.011
-355.778
-355.526
-355.255
-354.964
-354.648
-354.308
-353.945
-353.549
-353.129
-352.674
-352.191
-351.678
-351.119
-350.531
-349.902
-349.231
-348.52
-347.762
-346.959
-346.09
-345.179
-344.219
-343.197
-342.119
-340.972
-339.752
-338.468
-337.101
-335.647
-334.101
-332.457
-330.709
-328.848
-326.87
-324.764
-322.522
-320.134
-317.589
-314.875
-311.976
-308.877
-305.561
-302.007
-298.192
-294.087
-289.661
-284.876
-279.687
-274.037
-267.861
-261.075
-253.574
-245.226
-235.849
-225.201
-212.93
-198.508
-181.053
-158.892
-128.116
-357.027
-357.027
-357.026
-357.026
-357.026
-357.026
-357.026
-357.025
-357.025
-357.025
-357.025
-357.025
-357.025
-357.025
-357.025
-357.025
-357.025
-357.024
-357.024
-357.024
-357.024
-357.024
-357.024
-357.024
-357.024
-357.024
-357.024
-357.024
-357.024
-357.024
-357.024
-357.024
-357.023
-357.023
-357.023
-357.022
-357.022
-357.021
-357.02
-357.02
-357.019
-357.018
-357.017
-357.016
-357.014
-357.012
-357.01
-357.008
-357.005
-357.002
-356.999
-356.995
-356.99
-356.985
-356.979
-356.973
-356.964
-356.956
-356.946
-356.936
-356.924
-356.91
-356.893
-356.877
-356.858
-356.835
-356.812
-356.785
-356.754
-356.721
-356.684
-356.641
-356.595
-356.545
-356.489
-356.428
-356.359
-356.284
-356.202
-356.111
-356.011
-355.902
-355.784
-355.653
-355.512
-355.358
-355.19
-355.008
-354.809
-354.594
-354.362
-354.109
-353.839
-353.547
-353.232
-352.892
-352.529
-352.133
-351.713
-351.258
-350.775
-350.262
-349.704
-349.115
-348.487
-347.816
-347.106
-346.348
-345.546
-344.677
-343.766
-342.806
-341.785
-340.707
-339.562
-338.342
-337.059
-335.693
-334.256
-332.726
-331.099
-329.367
-327.524
-325.563
-323.476
-321.252
-318.882
-316.356
-313.659
-310.78
-307.701
-304.405
-300.872
-297.077
-292.994
-288.59
-283.826
-278.659
-273.034
-266.881
-260.12
-252.645
-244.321
-234.968
-224.337
-212.079
-197.669
-180.222
-158.062
-127.286
-355.452
-355.452
-355.452
-355.452
-355.451
-355.451
-355.451
-355.451
-355.451
-355.45
-355.451
-355.451
-355.45
-355.45
-355.45
-355.45
-355.45
-355.45
-355.45
-355.45
-355.45
-355.45
-355.45
-355.45
-355.45
-355.449
-355.449
-355.449
-355.449
-355.449
-355.449
-355.449
-355.449
-355.448
-355.448
-355.448
-355.447
-355.446
-355.446
-355.445
-355.444
-355.443
-355.442
-355.441
-355.44
-355.438
-355.436
-355.434
-355.431
-355.428
-355.424
-355.42
-355.415
-355.41
-355.404
-355.398
-355.389
-355.381
-355.371
-355.361
-355.349
-355.335
-355.319
-355.302
-355.284
-355.261
-355.237
-355.21
-355.179
-355.147
-355.109
-355.067
-355.021
-354.97
-354.915
-354.853
-354.785
-354.709
-354.627
-354.536
-354.436
-354.327
-354.209
-354.079
-353.938
-353.783
-353.616
-353.433
-353.235
-353.02
-352.788
-352.535
-352.266
-351.974
-351.658
-351.319
-350.955
-350.56
-350.14
-349.685
-349.202
-348.689
-348.132
-347.543
-346.916
-346.245
-345.535
-344.777
-343.975
-343.106
-342.197
-341.237
-340.216
-339.14
-337.995
-336.776
-335.493
-334.129
-332.693
-331.182
-329.574
-327.862
-326.039
-324.098
-322.03
-319.827
-317.479
-314.973
-312.299
-309.442
-306.386
-303.114
-299.605
-295.834
-291.775
-287.396
-282.658
-277.517
-271.917
-265.792
-259.057
-251.608
-243.311
-233.982
-223.371
-211.131
-196.726
-179.275
-157.116
-126.341
-353.715
-353.715
-353.715
-353.714
-353.714
-353.714
-353.714
-353.714
-353.713
-353.713
-353.714
-353.713
-353.713
-353.713
-353.713
-353.713
-353.713
-353.713
-353.713
-353.712
-353.712
-353.712
-353.712
-353.712
-353.712
-353.712
-353.712
-353.712
-353.712
-353.712
-353.712
-353.712
-353.711
-353.711
-353.711
-353.711
-353.71
-353.709
-353.709
-353.708
-353.707
-353.706
-353.705
-353.704
-353.702
-353.701
-353.699
-353.697
-353.694
-353.691
-353.687
-353.683
-353.678
-353.673
-353.667
-353.661
-353.652
-353.644
-353.634
-353.624
-353.612
-353.598
-353.581
-353.565
-353.547
-353.524
-353.5
-353.473
-353.442
-353.41
-353.372
-353.33
-353.284
-353.234
-353.178
-353.117
-353.048
-352.973
-352.89
-352.8
-352.7
-352.591
-352.473
-352.343
-352.201
-352.047
-351.879
-351.697
-351.499
-351.283
-351.051
-350.799
-350.53
-350.238
-349.922
-349.583
-349.22
-348.824
-348.405
-347.95
-347.467
-346.955
-346.398
-345.809
-345.182
-344.511
-343.802
-343.044
-342.243
-341.375
-340.466
-339.507
-338.487
-337.411
-336.266
-335.048
-333.767
-332.405
-330.97
-329.461
-327.855
-326.164
-324.364
-322.445
-320.4
-318.22
-315.896
-313.415
-310.765
-307.933
-304.903
-301.656
-298.172
-294.428
-290.397
-286.045
-281.335
-276.223
-270.651
-264.554
-257.849
-250.429
-242.156
-232.848
-222.26
-210.037
-195.647
-178.208
-156.052
-125.276
-351.81
-351.81
-351.809
-351.809
-351.809
-351.809
-351.809
-351.808
-351.808
-351.808
-351.808
-351.808
-351.808
-351.808
-351.808
-351.808
-351.808
-351.807
-351.807
-351.807
-351.807
-351.807
-351.807
-351.807
-351.807
-351.807
-351.807
-351.807
-351.807
-351.807
-351.807
-351.806
-351.806
-351.806
-351.806
-351.805
-351.804
-351.804
-351.803
-351.803
-351.802
-351.801
-351.8
-351.799
-351.797
-351.796
-351.794
-351.792
-351.789
-351.786
-351.782
-351.778
-351.773
-351.768
-351.762
-351.756
-351.747
-351.74
-351.73
-351.72
-351.707
-351.693
-351.676
-351.66
-351.642
-351.618
-351.595
-351.569
-351.538
-351.505
-351.467
-351.425
-351.379
-351.329
-351.273
-351.212
-351.144
-351.068
-350.986
-350.895
-350.795
-350.686
-350.569
-350.438
-350.296
-350.143
-349.974
-349.793
-349.595
-349.379
-349.147
-348.894
-348.626
-348.334
-348.018
-347.68
-347.317
-346.921
-346.502
-346.048
-345.565
-345.053
-344.496
-343.908
-343.281
-342.61
-341.902
-341.144
-340.343
-339.476
-338.568
-337.609
-336.59
-335.515
-334.371
-333.155
-331.875
-330.514
-329.081
-327.574
-325.97
-324.282
-322.484
-320.591
-318.572
-316.419
-314.121
-311.667
-309.045
-306.24
-303.239
-300.021
-296.567
-292.854
-288.853
-284.533
-279.856
-274.776
-269.238
-263.176
-256.506
-249.119
-240.879
-231.599
-221.035
-208.83
-194.447
-177.011
-154.858
-124.083
-349.73
-349.73
-349.73
-349.73
-349.73
-349.729
-349.729
-349.729
-349.729
-349.729
-349.729
-349.729
-349.729
-349.729
-349.728
-349.728
-349.728
-349.728
-349.728
-349.728
-349.728
-349.728
-349.728
-349.728
-349.728
-349.728
-349.728
-349.728
-349.728
-349.727
-349.727
-349.727
-349.727
-349.727
-349.726
-349.726
-349.725
-349.725
-349.724
-349.723
-349.723
-349.722
-349.721
-349.719
-349.718
-349.716
-349.714
-349.712
-349.709
-349.707
-349.703
-349.699
-349.694
-349.689
-349.683
-349.677
-349.668
-349.661
-349.651
-349.641
-349.628
-349.613
-349.597
-349.581
-349.563
-349.539
-349.516
-349.489
-349.459
-349.426
-349.388
-349.346
-349.3
-349.25
-349.194
-349.133
-349.065
-348.99
-348.907
-348.816
-348.716
-348.608
-348.49
-348.36
-348.218
-348.064
-347.895
-347.715
-347.517
-347.3
-347.069
-346.816
-346.548
-346.256
-345.941
-345.602
-345.24
-344.844
-344.425
-343.971
-343.489
-342.977
-342.42
-341.833
-341.206
-340.536
-339.827
-339.07
-338.271
-337.404
-336.496
-335.539
-334.521
-333.446
-332.304
-331.089
-329.811
-328.452
-327.02
-325.516
-323.914
-322.23
-320.434
-318.546
-316.532
-314.408
-312.14
-309.717
-307.126
-304.354
-301.384
-298.199
-294.779
-291.099
-287.133
-282.847
-278.205
-273.16
-267.659
-261.635
-255
-247.648
-239.444
-230.201
-219.669
-207.492
-193.124
-175.695
-153.547
-122.772
-347.47
-347.47
-347.47
-347.469
-347.469
-347.469
-347.469
-347.468
-347.468
-347.468
-347.468
-347.468
-347.468
-347.468
-347.468
-347.468
-347.467
-347.467
-347.467
-347.467
-347.467
-347.467
-347.467
-347.467
-347.467
-347.467
-347.467
-347.467
-347.467
-347.467
-347.467
-347.466
-347.466
-347.466
-347.466
-347.465
-347.464
-347.464
-347.463
-347.463
-347.462
-347.461
-347.46
-347.459
-347.457
-347.456
-347.454
-347.452
-347.449
-347.446
-347.443
-347.439
-347.433
-347.429
-347.422
-347.416
-347.408
-347.4
-347.391
-347.381
-347.368
-347.353
-347.336
-347.32
-347.303
-347.279
-347.255
-347.229
-347.198
-347.166
-347.127
-347.086
-347.04
-346.99
-346.934
-346.873
-346.805
-346.73
-346.648
-346.556
-346.456
-346.348
-346.23
-346.1
-345.958
-345.805
-345.636
-345.455
-345.257
-345.041
-344.81
-344.557
-344.289
-343.997
-343.682
-343.344
-342.982
-342.586
-342.168
-341.714
-341.232
-340.721
-340.164
-339.577
-338.95
-338.281
-337.573
-336.817
-336.018
-335.152
-334.244
-333.288
-332.271
-331.198
-330.058
-328.844
-327.568
-326.211
-324.782
-323.28
-321.68
-320
-318.208
-316.324
-314.316
-312.198
-309.964
-307.575
-305.019
-302.281
-299.347
-296.199
-292.815
-289.173
-285.245
-280.999
-276.397
-271.393
-265.932
-259.946
-253.352
-246.043
-237.879
-228.673
-218.169
-206.012
-191.658
-174.243
-152.102
-121.328
-345.02
-345.02
-345.02
-345.019
-345.019
-345.019
-345.019
-345.018
-345.018
-345.018
-345.018
-345.018
-345.018
-345.018
-345.018
-345.018
-345.018
-345.017
-345.017
-345.017
-345.017
-345.017
-345.017
-345.017
-345.017
-345.017
-345.017
-345.017
-345.017
-345.017
-345.017
-345.016
-345.016
-345.016
-345.016
-345.015
-345.014
-345.014
-345.013
-345.013
-345.012
-345.011
-345.01
-345.009
-345.007
-345.006
-345.004
-345.002
-344.999
-344.996
-344.993
-344.989
-344.983
-344.979
-344.973
-344.967
-344.958
-344.951
-344.941
-344.932
-344.919
-344.904
-344.886
-344.87
-344.853
-344.829
-344.806
-344.78
-344.748
-344.716
-344.678
-344.636
-344.59
-344.54
-344.484
-344.423
-344.355
-344.28
-344.198
-344.107
-344.007
-343.898
-343.78
-343.651
-343.509
-343.356
-343.187
-343.006
-342.808
-342.592
-342.361
-342.109
-341.84
-341.549
-341.235
-340.896
-340.534
-340.138
-339.721
-339.268
-338.786
-338.275
-337.719
-337.132
-336.506
-335.838
-335.13
-334.375
-333.576
-332.711
-331.805
-330.85
-329.834
-328.763
-327.623
-326.412
-325.137
-323.783
-322.357
-320.857
-319.261
-317.586
-315.797
-313.919
-311.917
-309.807
-307.58
-305.229
-302.712
-300.015
-297.121
-294.013
-290.672
-287.072
-283.187
-278.985
-274.427
-269.468
-264.052
-258.112
-251.564
-244.299
-236.177
-227.011
-216.547
-204.42
-190.09
-172.671
-150.515
-119.742
-342.372
-342.372
-342.372
-342.371
-342.371
-342.371
-342.371
-342.371
-342.37
-342.37
-342.37
-342.37
-342.37
-342.37
-342.37
-342.37
-342.37
-342.369
-342.369
-342.369
-342.369
-342.369
-342.369
-342.369
-342.369
-342.369
-342.369
-342.369
-342.369
-342.369
-342.369
-342.368
-342.368
-342.368
-342.368
-342.367
-342.366
-342.366
-342.365
-342.365
-342.364
-342.363
-342.362
-342.361
-342.359
-342.358
-342.356
-342.354
-342.351
-342.348
-342.345
-342.341
-342.336
-342.331
-342.325
-342.319
-342.31
-342.303
-342.293
-342.283
-342.27
-342.256
-342.238
-342.222
-342.205
-342.181
-342.158
-342.132
-342.1
-342.068
-342.03
-341.989
-341.942
-341.892
-341.836
-341.775
-341.707
-341.632
-341.551
-341.459
-341.36
-341.251
-341.133
-341.003
-340.862
-340.709
-340.54
-340.359
-340.161
-339.945
-339.715
-339.463
-339.194
-338.903
-338.589
-338.251
-337.889
-337.493
-337.076
-336.623
-336.142
-335.632
-335.076
-334.49
-333.865
-333.197
-332.49
-331.736
-330.938
-330.074
-329.169
-328.215
-327.201
-326.131
-324.993
-323.785
-322.512
-321.16
-319.738
-318.242
-316.649
-314.979
-313.195
-311.322
-309.327
-307.225
-305.007
-302.668
-300.164
-297.51
-294.662
-291.6
-288.305
-284.753
-280.915
-276.761
-272.251
-267.341
-261.975
-256.085
-249.586
-242.368
-234.292
-225.172
-214.751
-202.666
-188.373
-170.984
-148.842
-118.07
-339.516
-339.516
-339.516
-339.515
-339.515
-339.515
-339.515
-339.514
-339.514
-339.514
-339.514
-339.514
-339.514
-339.514
-339.514
-339.513
-339.513
-339.513
-339.513
-339.513
-339.513
-339.513
-339.513
-339.513
-339.513
-339.513
-339.513
-339.513
-339.513
-339.513
-339.512
-339.512
-339.512
-339.512
-339.511
-339.511
-339.51
-339.51
-339.509
-339.508
-339.508
-339.507
-339.506
-339.505
-339.503
-339.501
-339.5
-339.498
-339.495
-339.492
-339.489
-339.485
-339.479
-339.475
-339.469
-339.463
-339.454
-339.446
-339.436
-339.427
-339.413
-339.399
-339.381
-339.365
-339.348
-339.325
-339.301
-339.276
-339.243
-339.212
-339.173
-339.132
-339.085
-339.036
-338.98
-338.919
-338.851
-338.776
-338.694
-338.603
-338.504
-338.395
-338.277
-338.147
-338.006
-337.853
-337.684
-337.504
-337.306
-337.09
-336.86
-336.608
-336.339
-336.048
-335.735
-335.397
-335.035
-334.64
-334.223
-333.771
-333.29
-332.781
-332.225
-331.64
-331.016
-330.348
-329.642
-328.889
-328.092
-327.23
-326.326
-325.374
-324.361
-323.293
-322.158
-320.952
-319.681
-318.333
-316.915
-315.422
-313.834
-312.169
-310.39
-308.524
-306.537
-304.444
-302.237
-299.91
-297.42
-294.784
-291.985
-288.975
-285.731
-282.231
-278.447
-274.347
-269.893
-265.037
-259.726
-253.89
-247.443
-240.278
-232.254
-223.184
-212.811
-200.762
-186.493
-169.13
-147.008
-116.238
-336.44
-336.44
-336.439
-336.439
-336.439
-336.439
-336.438
-336.438
-336.438
-336.438
-336.438
-336.438
-336.438
-336.437
-336.437
-336.437
-336.437
-336.437
-336.437
-336.437
-336.437
-336.437
-336.437
-336.437
-336.437
-336.436
-336.436
-336.436
-336.436
-336.436
-336.436
-336.436
-336.436
-336.435
-336.435
-336.435
-336.434
-336.433
-336.433
-336.432
-336.431
-336.43
-336.429
-336.428
-336.427
-336.425
-336.423
-336.421
-336.418
-336.416
-336.412
-336.409
-336.403
-336.399
-336.393
-336.387
-336.377
-336.37
-336.36
-336.351
-336.337
-336.322
-336.304
-336.289
-336.272
-336.248
-336.225
-336.2
-336.167
-336.135
-336.097
-336.056
-336.009
-335.96
-335.904
-335.843
-335.775
-335.7
-335.618
-335.527
-335.428
-335.319
-335.201
-335.071
-334.93
-334.778
-334.609
-334.428
-334.232
-334.014
-333.785
-333.534
-333.265
-332.974
-332.661
-332.324
-331.961
-331.567
-331.151
-330.699
-330.219
-329.711
-329.156
-328.572
-327.949
-327.282
-326.576
-325.824
-325.029
-324.168
-323.265
-322.316
-321.304
-320.238
-319.106
-317.903
-316.635
-315.29
-313.877
-312.388
-310.806
-309.146
-307.374
-305.516
-303.538
-301.454
-299.259
-296.946
-294.472
-291.854
-289.079
-286.125
-282.939
-279.497
-275.772
-271.732
-267.337
-262.542
-257.29
-251.515
-245.13
-238.023
-230.057
-221.043
-210.716
-198.71
-184.479
-167.13
-145.008
-114.242
-333.131
-333.131
-333.131
-333.13
-333.13
-333.13
-333.13
-333.129
-333.129
-333.129
-333.129
-333.129
-333.129
-333.129
-333.129
-333.128
-333.128
-333.128
-333.128
-333.128
-333.128
-333.128
-333.128
-333.128
-333.128
-333.128
-333.128
-333.128
-333.128
-333.127
-333.127
-333.127
-333.127
-333.127
-333.126
-333.126
-333.125
-333.125
-333.124
-333.123
-333.123
-333.122
-333.121
-333.119
-333.118
-333.116
-333.115
-333.112
-333.11
-333.107
-333.104
-333.1
-333.094
-333.09
-333.084
-333.078
-333.069
-333.061
-333.052
-333.042
-333.028
-333.014
-332.996
-332.98
-332.963
-332.94
-332.917
-332.892
-332.857
-332.826
-332.788
-332.747
-332.701
-332.652
-332.595
-332.534
-332.467
-332.392
-332.31
-332.218
-332.12
-332.011
-331.893
-331.763
-331.622
-331.47
-331.302
-331.12
-330.924
-330.708
-330.478
-330.228
-329.959
-329.667
-329.355
-329.019
-328.656
-328.262
-327.847
-327.396
-326.917
-326.409
-325.855
-325.272
-324.649
-323.984
-323.279
-322.529
-321.734
-320.876
-319.974
-319.027
-318.018
-316.954
-315.826
-314.625
-313.362
-312.021
-310.611
-309.128
-307.552
-305.899
-304.135
-302.285
-300.318
-298.244
-296.063
-293.765
-291.309
-288.712
-285.961
-283.035
-279.913
-276.537
-272.878
-268.903
-264.575
-259.847
-254.664
-248.957
-242.638
-235.596
-227.694
-218.743
-208.484
-196.543
-182.368
-165.048
-142.937
-112.177
-329.576
-329.576
-329.576
-329.576
-329.575
-329.575
-329.575
-329.575
-329.574
-329.574
-329.574
-329.574
-329.574
-329.574
-329.574
-329.574
-329.573
-329.573
-329.573
-329.573
-329.573
-329.573
-329.573
-329.573
-329.573
-329.573
-329.573
-329.573
-329.573
-329.573
-329.572
-329.572
-329.572
-329.572
-329.571
-329.571
-329.57
-329.57
-329.569
-329.569
-329.568
-329.567
-329.566
-329.565
-329.563
-329.562
-329.56
-329.558
-329.555
-329.552
-329.549
-329.545
-329.54
-329.535
-329.529
-329.523
-329.514
-329.506
-329.497
-329.488
-329.473
-329.459
-329.441
-329.426
-329.409
-329.386
-329.363
-329.338
-329.302
-329.271
-329.232
-329.192
-329.146
-329.098
-329.041
-328.979
-328.912
-328.837
-328.755
-328.664
-328.565
-328.457
-328.338
-328.209
-328.068
-327.916
-327.749
-327.566
-327.37
-327.154
-326.925
-326.674
-326.406
-326.114
-325.803
-325.468
-325.106
-324.712
-324.297
-323.848
-323.368
-322.862
-322.308
-321.726
-321.105
-320.441
-319.738
-318.989
-318.195
-317.34
-316.44
-315.495
-314.489
-313.428
-312.303
-311.106
-309.848
-308.51
-307.106
-305.629
-304.059
-302.415
-300.659
-298.819
-296.863
-294.801
-292.635
-290.355
-287.918
-285.345